
    -----------------------------------------------------------------------
          Psi4: An Open-Source Ab Initio Electronic Structure Package
                               Psi4 1.7 release

                         Git: Rev {HEAD} 6ce35a5 


    D. G. A. Smith, L. A. Burns, A. C. Simmonett, R. M. Parrish,
    M. C. Schieber, R. Galvelis, P. Kraus, H. Kruse, R. Di Remigio,
    A. Alenaizan, A. M. James, S. Lehtola, J. P. Misiewicz, M. Scheurer,
    R. A. Shaw, J. B. Schriber, Y. Xie, Z. L. Glick, D. A. Sirianni,
    J. S. O'Brien, J. M. Waldrop, A. Kumar, E. G. Hohenstein,
    B. P. Pritchard, B. R. Brooks, H. F. Schaefer III, A. Yu. Sokolov,
    K. Patkowski, A. E. DePrince III, U. Bozkaya, R. A. King,
    F. A. Evangelista, J. M. Turney, T. D. Crawford, C. D. Sherrill,
    J. Chem. Phys. 152(18) 184108 (2020). https://doi.org/10.1063/5.0006002

                            Additional Code Authors
    E. T. Seidl, C. L. Janssen, E. F. Valeev, M. L. Leininger,
    J. F. Gonthier, R. M. Richard, H. R. McAlexander, M. Saitow, X. Wang,
    P. Verma, M. H. Lechner, A. Jiang, S. Behnle, A. G. Heide,
    M. F. Herbst, and D. L. Poole

             Previous Authors, Complete List of Code Contributors,
                       and Citations for Specific Modules
    https://github.com/psi4/psi4/blob/master/codemeta.json
    https://github.com/psi4/psi4/graphs/contributors
    http://psicode.org/psi4manual/master/introduction.html#citing-psifour

    -----------------------------------------------------------------------


    Psi4 started on: Thursday, 22 February 2024 10:15AM

    Process ID: 579651
    Host:       wr80
    PSIDATADIR: /home/kkirsc3m/miniconda3/envs/psi4_stable/share/psi4
    Memory:     500.0 MiB
    Threads:    32
    
  ==> Input File <==

--------------------------------------------------------------------------
memory 40.0 Gb

molecule conformer {
0 1
    C            1.391845319213     0.000000000000     0.000000000000
    C            0.695920652319    -1.205374872649     0.000000000000
    C           -0.695920652319    -1.205374872649     0.000000000000
    C           -1.391845319213    -0.000000000000     0.000000000000
    C           -0.695920652319     1.205374872649     0.000000000000
    C            0.695920652319     1.205374872649     0.000000000000
    H            2.473081087481     0.000000000000     0.000000000000
    H            1.236539138535    -2.141749428493     0.000000000000
    H           -1.236539138535    -2.141749428493     0.000000000000
    H           -2.473081087481    -0.000000000000     0.000000000000
    H           -1.236539138535     2.141749428493     0.000000000000
    H            1.236539138535     2.141749428493     0.000000000000
}
set globals {
  geom_maxiter 200
  reference rhf
  g_convergence gau_tight
  basis aug-cc-pvqz
  freeze_core true
}
frequency('mp2')
conformer.print_out_in_angstrom()
--------------------------------------------------------------------------

  Memory set to  37.253 GiB by Python driver.

         ----------------------------------------------------------
                                   FINDIF
                     R. A. King and Jonathon Misiewicz
         ----------------------------------------------------------

  Using finite-differences of gradients to determine vibrational frequencies and 
  normal modes. Resulting frequencies are only valid at stationary points.
    Generating geometries for use with 3-point formula.
    Displacement size will be 5.00e-03.
    Number of atoms is 12.
    Number of irreps is 8.
    Number of SALCs is 33.
    Translations projected? 1. Rotations projected? 0.
    Index of SALCs per irrep:
      1 :  0  1  2  3  4  5 
      2 :  6  7  8  9  10  11 
      3 :  12  13  14  15 
      4 :  16  17 
      5 :  18  19 
      6 :  20  21  22 
      7 :  23  24  25  26  27 
      8 :  28  29  30  31  32 
    Number of SALCs per irrep:
      Irrep 1: 6
      Irrep 2: 6
      Irrep 3: 4
      Irrep 4: 2
      Irrep 5: 2
      Irrep 6: 3
      Irrep 7: 5
      Irrep 8: 5
    Number of geometries (including reference) is 40.
    Number of displacements per irrep:
      Irrep 1: 12
      Irrep 2: 6
      Irrep 3: 4
      Irrep 4: 2
      Irrep 5: 2
      Irrep 6: 3
      Irrep 7: 5
      Irrep 8: 5
 40 displacements needed ...

  //>>>>>>>>>>>>>>>>>>>>>>>>>>>>>>>>>>>//
  //    FiniteDifference Computations  //
  //<<<<<<<<<<<<<<<<<<<<<<<<<<<<<<<<<<<//


    -----------------------------------------------------------------------
          Psi4: An Open-Source Ab Initio Electronic Structure Package
                               Psi4 1.7 release

                         Git: Rev {HEAD} 6ce35a5 


    D. G. A. Smith, L. A. Burns, A. C. Simmonett, R. M. Parrish,
    M. C. Schieber, R. Galvelis, P. Kraus, H. Kruse, R. Di Remigio,
    A. Alenaizan, A. M. James, S. Lehtola, J. P. Misiewicz, M. Scheurer,
    R. A. Shaw, J. B. Schriber, Y. Xie, Z. L. Glick, D. A. Sirianni,
    J. S. O'Brien, J. M. Waldrop, A. Kumar, E. G. Hohenstein,
    B. P. Pritchard, B. R. Brooks, H. F. Schaefer III, A. Yu. Sokolov,
    K. Patkowski, A. E. DePrince III, U. Bozkaya, R. A. King,
    F. A. Evangelista, J. M. Turney, T. D. Crawford, C. D. Sherrill,
    J. Chem. Phys. 152(18) 184108 (2020). https://doi.org/10.1063/5.0006002

                            Additional Code Authors
    E. T. Seidl, C. L. Janssen, E. F. Valeev, M. L. Leininger,
    J. F. Gonthier, R. M. Richard, H. R. McAlexander, M. Saitow, X. Wang,
    P. Verma, M. H. Lechner, A. Jiang, S. Behnle, A. G. Heide,
    M. F. Herbst, and D. L. Poole

             Previous Authors, Complete List of Code Contributors,
                       and Citations for Specific Modules
    https://github.com/psi4/psi4/blob/master/codemeta.json
    https://github.com/psi4/psi4/graphs/contributors
    http://psicode.org/psi4manual/master/introduction.html#citing-psifour

    -----------------------------------------------------------------------


    Psi4 started on: Thursday, 22 February 2024 10:15AM

    Process ID: 579651
    Host:       wr80
    PSIDATADIR: /home/kkirsc3m/miniconda3/envs/psi4_stable/share/psi4
    Memory:     37.3 GiB
    Threads:    32
    
  ==> Input QCSchema <==

--------------------------------------------------------------------------
{'driver': 'gradient',
 'extras': {'psiapi': True, 'wfn_qcvars_only': True},
 'id': None,
 'keywords': {'E_CONVERGENCE': 1e-08,
              'FREEZE_CORE': 'TRUE',
              'GEOM_MAXITER': 200,
              'G_CONVERGENCE': 'GAU_TIGHT',
              'PARENT_SYMMETRY': 'D2h',
              'REFERENCE': 'RHF',
              'SCF__D_CONVERGENCE': 1e-10,
              'SCF__E_CONVERGENCE': 1e-10,
              'function_kwargs': {}},
 'model': {'basis': 'aug-cc-pvqz', 'method': 'mp2'},
 'molecule': {'atom_labels': ['', '', '', '', '', '', '', '', '', '', '', ''],
              'atomic_numbers': [6, 6, 6, 6, 6, 6, 1, 1, 1, 1, 1, 1],
              'fix_com': True,
              'fix_orientation': True,
              'fragment_charges': [0.0],
              'fragment_multiplicities': [1],
              'fragments': [[0, 1, 2, 3, 4, 5, 6, 7, 8, 9, 10, 11]],
              'geometry': [2.630206462312996, 4.026342406460367e-17, 0.0, 1.315099437932868, -2.2778283878152172, 0.0,
                           -1.315099437932868, -2.2778283878152172, 0.0, -2.630206462312996, -4.026342406460367e-17,
                           0.0, -1.315099437932868, 2.2778283878152172, 0.0, 1.315099437932868, 2.2778283878152172, 0.0,
                           4.6734459413885014, 7.154150766387021e-17, 0.0, 2.3367203152407057, -4.047319849207594, 0.0,
                           -2.3367203152407057, -4.047319849207594, 0.0, -4.6734459413885014, -7.154150766387021e-17,
                           0.0, -2.3367203152407057, 4.047319849207594, 0.0, 2.3367203152407057, 4.047319849207594,
                           0.0],
              'mass_numbers': [12, 12, 12, 12, 12, 12, 1, 1, 1, 1, 1, 1],
              'masses': [12.0, 12.0, 12.0, 12.0, 12.0, 12.0, 1.00782503223, 1.00782503223, 1.00782503223, 1.00782503223,
                         1.00782503223, 1.00782503223],
              'molecular_charge': 0.0,
              'molecular_multiplicity': 1,
              'name': 'conformer',
              'provenance': {'creator': 'QCElemental',
                             'routine': 'qcelemental.molparse.from_string',
                             'version': 'v0.25.1'},
              'real': [True, True, True, True, True, True, True, True, True, True, True, True],
              'schema_name': 'qcschema_molecule',
              'schema_version': 2,
              'symbols': ['C', 'C', 'C', 'C', 'C', 'C', 'H', 'H', 'H', 'H', 'H', 'H'],
              'validated': True},
 'protocols': {'stdout': True},
 'provenance': {'creator': 'QCElemental', 'routine': 'qcelemental.models.results', 'version': 'v0.25.1'},
 'schema_name': 'qcschema_input',
 'schema_version': 1}
--------------------------------------------------------------------------

Scratch directory: /tmp/slurm.157056./
gradient() will perform analytic gradient computation.
    SCF Algorithm Type (re)set to DF.

*** tstart() called on wr80
*** at Thu Feb 22 10:15:10 2024

   => Loading Basis Set <=

    Name: AUG-CC-PVQZ
    Role: ORBITAL
    Keyword: BASIS
    atoms 1-6  entry C          line   303 file /home/kkirsc3m/miniconda3/envs/psi4_stable/share/psi4/basis/aug-cc-pvqz.gbs 
    atoms 7-12 entry H          line    40 file /home/kkirsc3m/miniconda3/envs/psi4_stable/share/psi4/basis/aug-cc-pvqz.gbs 


         ---------------------------------------------------------
                                   SCF
               by Justin Turney, Rob Parrish, Andy Simmonett
                          and Daniel G. A. Smith
                              RHF Reference
                       32 Threads,  38146 MiB Core
         ---------------------------------------------------------

  ==> Geometry <==

    Molecular point group: d2h
    Full point group: D2h

    Geometry (in Bohr), charge = 0, multiplicity = 1:

       Center              X                  Y                   Z               Mass       
    ------------   -----------------  -----------------  -----------------  -----------------
         C            2.630206462313     0.000000000000     0.000000000000    12.000000000000
         C            1.315099437933    -2.277828387815     0.000000000000    12.000000000000
         C           -1.315099437933    -2.277828387815     0.000000000000    12.000000000000
         C           -2.630206462313    -0.000000000000     0.000000000000    12.000000000000
         C           -1.315099437933     2.277828387815     0.000000000000    12.000000000000
         C            1.315099437933     2.277828387815     0.000000000000    12.000000000000
         H            4.673445941389     0.000000000000     0.000000000000     1.007825032230
         H            2.336720315241    -4.047319849208     0.000000000000     1.007825032230
         H           -2.336720315241    -4.047319849208     0.000000000000     1.007825032230
         H           -4.673445941389    -0.000000000000     0.000000000000     1.007825032230
         H           -2.336720315241     4.047319849208     0.000000000000     1.007825032230
         H            2.336720315241     4.047319849208     0.000000000000     1.007825032230

  Running in d2h symmetry.

  Rotational constants: A =      0.19106  B =      0.19106  C =      0.09553 [cm^-1]
  Rotational constants: A =   5727.82826  B =   5727.80943  C =   2863.90942 [MHz]
  Nuclear repulsion =  203.941808197391794

  Charge       = 0
  Multiplicity = 1
  Electrons    = 42
  Nalpha       = 21
  Nbeta        = 21

  ==> Algorithm <==

  SCF Algorithm Type is DF.
  DIIS enabled.
  MOM disabled.
  Fractional occupation disabled.
  Guess Type is SAD.
  Energy threshold   = 1.00e-10
  Density threshold  = 1.00e-10
  Integral threshold = 1.00e-12

  ==> Primary Basis <==

  Basis Set: AUG-CC-PVQZ
    Blend: AUG-CC-PVQZ
    Number of shells: 204
    Number of basis functions: 756
    Number of Cartesian functions: 960
    Spherical Harmonics?: true
    Max angular momentum: 4

   => Loading Basis Set <=

    Name: (AUG-CC-PVQZ AUX)
    Role: JKFIT
    Keyword: DF_BASIS_SCF
    atoms 1-6  entry C          line   178 file /home/kkirsc3m/miniconda3/envs/psi4_stable/share/psi4/basis/aug-cc-pvqz-jkfit.gbs 
    atoms 7-12 entry H          line    70 file /home/kkirsc3m/miniconda3/envs/psi4_stable/share/psi4/basis/aug-cc-pvqz-jkfit.gbs 

  ==> Integral Setup <==

  DFHelper Memory: AOs need 5.679 GiB; user supplied 27.940 GiB. Using in-core AOs.

  ==> MemDFJK: Density-Fitted J/K Matrices <==

    J tasked:                   Yes
    K tasked:                   Yes
    wK tasked:                   No
    OpenMP threads:              32
    Memory [MiB]:             28610
    Algorithm:                 Core
    Schwarz Cutoff:           1E-12
    Mask sparsity (%):       3.2390
    Fitting Condition:        1E-10

   => Auxiliary Basis Set <=

  Basis Set: (AUG-CC-PVQZ AUX)
    Blend: AUG-CC-PVQZ-JKFIT
    Number of shells: 312
    Number of basis functions: 1308
    Number of Cartesian functions: 1794
    Spherical Harmonics?: true
    Max angular momentum: 5

  Minimum eigenvalue in the overlap matrix is 3.7962203603E-07.
  Reciprocal condition number of the overlap matrix is 2.4647709560E-08.
    Using symmetric orthogonalization.

  ==> Pre-Iterations <==

  SCF Guess: Superposition of Atomic Densities via on-the-fly atomic UHF (no occupation information).

   -------------------------
    Irrep   Nso     Nmo    
   -------------------------
     Ag       130     130 
     B1g      110     110 
     B2g       76      76 
     B3g       62      62 
     Au        62      62 
     B1u       76      76 
     B2u      110     110 
     B3u      130     130 
   -------------------------
    Total     756     756
   -------------------------

  ==> Iterations <==

                           Total Energy        Delta E     RMS |[F,P]|

   @DF-RHF iter SAD:  -230.22179100318129   -2.30222e+02   0.00000e+00 
   @DF-RHF iter   1:  -230.61209352679987   -3.90303e-01   1.98971e-03 DIIS/ADIIS
   @DF-RHF iter   2:  -230.75534979751461   -1.43256e-01   9.91927e-04 DIIS/ADIIS
   @DF-RHF iter   3:  -230.79308094521178   -3.77311e-02   1.61135e-04 DIIS/ADIIS
   @DF-RHF iter   4:  -230.79466589229281   -1.58495e-03   2.01275e-05 DIIS
   @DF-RHF iter   5:  -230.79469723305704   -3.13408e-05   3.64734e-06 DIIS
   @DF-RHF iter   6:  -230.79469831773099   -1.08467e-06   4.14683e-07 DIIS
   @DF-RHF iter   7:  -230.79469833477282   -1.70418e-08   5.48050e-08 DIIS
   @DF-RHF iter   8:  -230.79469833512343   -3.50610e-10   1.10165e-08 DIIS
   @DF-RHF iter   9:  -230.79469833513775   -1.43245e-11   1.76106e-09 DIIS
   @DF-RHF iter  10:  -230.79469833513906   -1.30740e-12   2.34609e-10 DIIS
   @DF-RHF iter  11:  -230.79469833513946   -3.97904e-13   3.83839e-11 DIIS
  Energy and wave function converged.


  ==> Post-Iterations <==

    Orbital Energies [Eh]
    ---------------------

    Doubly Occupied:                                                      

       1Ag   -11.234516     1B3u  -11.233933     1B2u  -11.233932  
       2Ag   -11.232676     1B1g  -11.232675     2B3u  -11.232059  
       3Ag    -1.151236     2B2u   -1.015126     3B3u   -1.015124  
       4Ag    -0.824313     2B1g   -0.824312     5Ag    -0.710339  
       4B3u   -0.643696     3B2u   -0.619966     4B2u   -0.588347  
       5B3u   -0.588346     1B1u   -0.503334     6Ag    -0.494963  
       3B1g   -0.494961     1B3g   -0.337250     1B2g   -0.337248  

    Virtual:                                                              

       7Ag     0.026487     6B3u    0.030434     5B2u    0.030434  
       8Ag     0.042490     4B1g    0.042490     7B3u    0.058664  
       2B1u    0.082946     2B3g    0.090169     2B2g    0.090169  
       3B1u    0.097737     1Au     0.097738     9Ag     0.100283  
       8B3u    0.101389     6B2u    0.101389     7B2u    0.105489  
      10Ag     0.113615     5B1g    0.113615    11Ag     0.117325  
       9B3u    0.125684     8B2u    0.125684     6B1g    0.134633  
      12Ag     0.134633    10B3u    0.138667     3B2g    0.140169  
       4B1u    0.140554     2Au     0.140555     7B1g    0.201894  
       5B1u    0.213256    11B3u    0.213487     9B2u    0.213488  
      13Ag     0.219246     8B1g    0.219246    14Ag     0.231495  
      15Ag     0.247910     9B1g    0.247910     3B3g    0.256111  
       4B2g    0.256111    10B2u    0.259986    12B3u    0.264359  
      13B3u    0.268279    11B2u    0.286454    14B3u    0.286454  
      16Ag     0.291826     5B2g    0.291910    17Ag     0.296141  
      10B1g    0.296142    12B2u    0.298533    15B3u    0.298533  
       6B2g    0.319295     4B3g    0.319295     6B1u    0.321303  
       3Au     0.321303    18Ag     0.324588     5B3g    0.332651  
       7B1u    0.348468     4Au     0.348468     8B1u    0.361555  
      16B3u    0.366694    13B2u    0.366694    14B2u    0.370092  
      17B3u    0.402712    15B2u    0.402712     7B2g    0.407750  
      19Ag     0.418768    11B1g    0.418768    12B1g    0.430180  
       8B2g    0.430986    20Ag     0.431570    13B1g    0.431571  
       5Au     0.438115     9B1u    0.438116    21Ag     0.444294  
      14B1g    0.454964    22Ag     0.454964    18B3u    0.457479  
      16B2u    0.474490    19B3u    0.474491    10B1u    0.475599  
      23Ag     0.503723    20B3u    0.504254    17B2u    0.504254  
      24Ag     0.514075    15B1g    0.514076    25Ag     0.518832  
      16B1g    0.518834     6B3g    0.518950     9B2g    0.518950  
      21B3u    0.529894     6Au     0.536206    18B2u    0.537343  
      22B3u    0.553264    19B2u    0.577430    23B3u    0.577431  
       7B3g    0.579025    10B2g    0.579025    17B1g    0.584192  
      20B2u    0.599892    24B3u    0.599893    26Ag     0.642290  
      11B1u    0.651058    12B1u    0.658850     7Au     0.658851  
      21B2u    0.679438    25B3u    0.679439    27Ag     0.693867  
      18B1g    0.693869    28Ag     0.695925    26B3u    0.699980  
      19B1g    0.705230    11B2g    0.705818     8B3g    0.712674  
      13B1u    0.730425     8Au     0.730425    29Ag     0.736206  
       9B3g    0.746289    12B2g    0.746289    14B1u    0.757871  
      30Ag     0.769986    20B1g    0.769986    13B2g    0.777267  
      10B3g    0.777267    22B2u    0.793154    27B3u    0.793154  
      15B1u    0.804126     9Au     0.804127    11B3g    0.829384  
      31Ag     0.833648    23B2u    0.836287    28B3u    0.836287  
      32Ag     0.838478    21B1g    0.838482    24B2u    0.864096  
      14B2g    0.875488    22B1g    0.890456    33Ag     0.890457  
      29B3u    0.894242    25B2u    0.916018    30B3u    0.916019  
      23B1g    0.922011    34Ag     0.922011    24B1g    0.928674  
      26B2u    0.939562    12B3g    0.952977    15B2g    0.952977  
      27B2u    0.958341    31B3u    0.958341    35Ag     0.978695  
      10Au     0.987936    16B1u    0.987936    36Ag     0.991040  
      25B1g    0.991042    32B3u    1.012986    37Ag     1.027556  
      26B1g    1.027556    33B3u    1.037559    11Au     1.044720  
      28B2u    1.054793    34B3u    1.054797    17B1u    1.072526  
      35B3u    1.093362    18B1u    1.098254    12Au     1.098254  
      16B2g    1.115129    27B1g    1.130883    38Ag     1.151264  
      13B3g    1.156122    17B2g    1.156123    39Ag     1.170675  
      28B1g    1.170677    29B2u    1.178488    36B3u    1.178488  
      30B2u    1.199613    37B3u    1.199614    31B2u    1.219168  
      38B3u    1.239462    19B1u    1.246274    20B1u    1.249253  
      13Au     1.249253    40Ag     1.277746    29B1g    1.294981  
      41Ag     1.299376    30B1g    1.299376    14Au     1.323662  
      14B3g    1.324273    42Ag     1.340932    39B3u    1.344202  
      32B2u    1.344203    18B2g    1.353061    15B3g    1.353062  
      19B2g    1.363083    20B2g    1.375319    16B3g    1.375319  
      33B2u    1.384250    40B3u    1.384252    43Ag     1.403022  
      31B1g    1.403023    15Au     1.404883    21B1u    1.404883  
      34B2u    1.432489    22B1u    1.449561    21B2g    1.505558  
      17B3g    1.505558    44Ag     1.525809    32B1g    1.525810  
      35B2u    1.529387    41B3u    1.529388    45Ag     1.530124  
      33B1g    1.530126    42B3u    1.557728    23B1u    1.568700  
      16Au     1.568701    18B3g    1.582506    22B2g    1.582506  
      23B2g    1.590916    36B2u    1.592249    43B3u    1.592250  
      34B1g    1.599179    46Ag     1.599179    47Ag     1.637757  
      37B2u    1.659380    44B3u    1.670181    24B1u    1.677970  
      38B2u    1.724687    45B3u    1.724689    39B2u    1.736655  
      25B1u    1.758854    17Au     1.758856    26B1u    1.770884  
      35B1g    1.787641    48Ag     1.787642    46B3u    1.788989  
      40B2u    1.815363    47B3u    1.815364    36B1g    1.818237  
      49Ag     1.847326    24B2g    1.858396    37B1g    1.876949  
      18Au     1.885065    50Ag     1.893788    38B1g    1.893790  
      51Ag     1.911190    39B1g    1.911191    27B1u    1.917415  
      19Au     1.917415    19B3g    1.935170    25B2g    1.935171  
      20B3g    1.943771    41B2u    1.977641    48B3u    1.977643  
      21B3g    2.023976    26B2g    2.023976    40B1g    2.031141  
      52Ag     2.031142    28B1u    2.033221    49B3u    2.035858  
      50B3u    2.044031    53Ag     2.049240    51B3u    2.062667  
      42B2u    2.062668    27B2g    2.073734    29B1u    2.085907  
      20Au     2.085908    54Ag     2.096028    30B1u    2.101385  
      31B1u    2.117514    21Au     2.117515    41B1g    2.135988  
      22B3g    2.136262    43B2u    2.150315    52B3u    2.150315  
      44B2u    2.180099    23B3g    2.195389    28B2g    2.195391  
      53B3u    2.237527    45B2u    2.241578    54B3u    2.241579  
      42B1g    2.253250    55Ag     2.253251    56Ag     2.260159  
      22Au     2.273669    46B2u    2.278679    55B3u    2.278681  
      24B3g    2.293203    29B2g    2.293203    23Au     2.295661  
      32B1u    2.295665    43B1g    2.297251    57Ag     2.297251  
      47B2u    2.303949    58Ag     2.376968    44B1g    2.376969  
      25B3g    2.392664    59Ag     2.394300    30B2g    2.401244  
      24Au     2.401397    33B1u    2.401397    60Ag     2.405073  
      45B1g    2.405074    34B1u    2.406594    56B3u    2.419828  
      48B2u    2.419829    61Ag     2.426830    31B2g    2.441518  
      26B3g    2.441520    46B1g    2.444340    57B3u    2.447297  
      49B2u    2.447298    32B2g    2.509865    27B3g    2.509865  
      50B2u    2.511338    58B3u    2.523521    51B2u    2.523522  
      33B2g    2.530326    59B3u    2.539380    34B2g    2.546128  
      28B3g    2.546129    62Ag     2.569736    47B1g    2.569736  
      35B1u    2.601313    25Au     2.601313    60B3u    2.611347  
      63Ag     2.617665    48B1g    2.617666    64Ag     2.619112  
      36B1u    2.640421    61B3u    2.666058    52B2u    2.666058  
      49B1g    2.707549    65Ag     2.707549    35B2g    2.720806  
      29B3g    2.720807    37B1u    2.735819    26Au     2.735822  
      53B2u    2.783756    66Ag     2.792192    50B1g    2.792193  
      38B1u    2.815395    39B1u    2.818426    27Au     2.818427  
      54B2u    2.822529    62B3u    2.822530    51B1g    2.832198  
      67Ag     2.832839    63B3u    2.844433    36B2g    2.872328  
      68Ag     2.889611    52B1g    2.889611    28Au     2.893465  
      55B2u    2.973007    64B3u    2.973007    30B3g    2.999902  
      37B2g    2.999903    65B3u    3.006087    38B2g    3.016530  
      56B2u    3.031504    69Ag     3.033954    53B1g    3.067169  
      66B3u    3.103607    57B2u    3.103608    40B1u    3.104756  
      29Au     3.104758    30Au     3.167669    31B3g    3.173956  
      39B2g    3.173957    54B1g    3.174016    70Ag     3.174017  
      32B3g    3.181473    67B3u    3.202383    58B2u    3.202383  
      41B1u    3.278140    68B3u    3.287157    71Ag     3.304759  
      55B1g    3.304760    59B2u    3.318756    69B3u    3.318756  
      56B1g    3.345067    72Ag     3.345069    31Au     3.356204  
      42B1u    3.356204    57B1g    3.392491    60B2u    3.437242  
      70B3u    3.437244    33B3g    3.470510    40B2g    3.474202  
      73Ag     3.508300    41B2g    3.525529    34B3g    3.525529  
      58B1g    3.532767    74Ag     3.589506    59B1g    3.589507  
      71B3u    3.597462    61B2u    3.597462    62B2u    3.611306  
      75Ag     3.639319    60B1g    3.639321    63B2u    3.640763  
      43B1u    3.686587    72B3u    3.745872    64B2u    3.754099  
      73B3u    3.754104    42B2g    3.787695    35B3g    3.787696  
      76Ag     3.806178    44B1u    3.835692    32Au     3.835692  
      61B1g    3.882604    77Ag     3.882605    45B1u    3.888251  
      33Au     3.888252    36B3g    3.951358    43B2g    3.951362  
      74B3u    3.956434    75B3u    3.971011    65B2u    3.971011  
      44B2g    4.020107    62B1g    4.036528    78Ag     4.036530  
      66B2u    4.053651    76B3u    4.053652    77B3u    4.069071  
      34Au     4.081755    46B1u    4.081757    79Ag     4.127525  
      80Ag     4.133422    63B1g    4.133426    78B3u    4.227060  
      67B2u    4.227064    81Ag     4.273725    64B1g    4.274453  
      82Ag     4.274457    79B3u    4.282176    45B2g    4.302942  
      37B3g    4.328941    35Au     4.362728    38B3g    4.373034  
      46B2g    4.373035    83Ag     4.382301    65B1g    4.382304  
      80B3u    4.385774    36Au     4.404541    47B1u    4.404541  
      37Au     4.410867    66B1g    4.412342    47B2g    4.443154  
      39B3g    4.443155    67B1g    4.501635    81B3u    4.502138  
      68B2u    4.502139    48B1u    4.505053    84Ag     4.534095  
      68B1g    4.534098    38Au     4.580320    49B1u    4.580325  
      69B2u    4.590330    85Ag     4.631720    82B3u    4.644764  
      70B2u    4.644765    48B2g    4.651415    83B3u    4.818749  
      84B3u    4.844000    85B3u    4.853890    71B2u    4.853894  
      86Ag     4.930041    50B1u    4.930551    39Au     4.930554  
      87Ag     4.944912    69B1g    4.944913    49B2g    4.956874  
      40B3g    4.956874    40Au     5.008717    70B1g    5.028920  
      72B2u    5.051252    86B3u    5.087528    73B2u    5.087532  
      88Ag     5.102813    71B1g    5.102816    50B2g    5.143333  
      74B2u    5.393848    87B3u    5.393849    88B3u    5.403928  
      72B1g    5.431101    89Ag     5.431105    89B3u    5.613125  
      75B2u    5.613127    73B1g    5.671050    90Ag     5.671050  
      51B1u    5.677500    90B3u    5.731526    74B1g    5.748161  
      91Ag     5.785651    41B3g    5.815982    41Au     5.849818  
      52B1u    5.849819    92Ag     5.897604    42B3g    5.960838  
      75B1g    5.994688    76B2u    6.011112    53B1u    6.015322  
      43B3g    6.066489    51B2g    6.066493    52B2g    6.087843  
      44B3g    6.087846    77B2u    6.126166    91B3u    6.126170  
      93Ag     6.265571    76B1g    6.265574    94Ag     6.273231  
      54B1u    6.292367    42Au     6.292368    45B3g    6.299356  
      53B2g    6.299356    55B1u    6.325734    95Ag     6.367061  
      77B1g    6.367067    78B2u    6.392856    92B3u    6.392864  
      56B1u    6.398438    43Au     6.398439    79B2u    6.449605  
      93B3u    6.449610    80B2u    6.467726    81B2u    6.496943  
      57B1u    6.539704    96Ag     6.555523    58B1u    6.607891  
      44Au     6.607891    54B2g    6.655703    55B2g    6.667791  
      46B3g    6.667792    47B3g    6.668178    97Ag     6.693435  
      78B1g    6.693439    94B3u    6.708033    59B1u    6.745975  
      45Au     6.745977    60B1u    6.776931    95B3u    6.795153  
      82B2u    6.795154    56B2g    6.825587    48B3g    6.848447  
      57B2g    6.848451    79B1g    6.912333    83B2u    6.914438  
      98Ag     6.930873    80B1g    6.930874    58B2g    6.953467  
      49B3g    6.953467    84B2u    6.956076    99Ag     6.975311  
      81B1g    6.975312   100Ag     6.975610    96B3u    7.020830  
      85B2u    7.020833    59B2g    7.097576    60B2g    7.109624  
      50B3g    7.109627    61B1u    7.109733    46Au     7.109736  
      47Au     7.118825   101Ag     7.145736    82B1g    7.145738  
     102Ag     7.195641    83B1g    7.200601    62B1u    7.214846  
      48Au     7.214852    51B3g    7.237827   103Ag     7.256451  
      84B1g    7.256454    97B3u    7.269912    86B2u    7.269912  
      87B2u    7.307880    98B3u    7.307882    63B1u    7.385637  
      61B2g    7.390359   104Ag     7.410361    85B1g    7.410371  
      64B1u    7.417238    49Au     7.417246    99B3u    7.417273  
     100B3u    7.456246    88B2u    7.528870   101B3u    7.528876  
     102B3u    7.568458    89B2u    7.568461    65B1u    7.593885  
     105Ag     7.594295    86B1g    7.594297    62B2g    7.633828  
      50Au     7.671368    66B1u    7.671370    63B2g    7.712354  
      52B3g    7.712354    53B3g    7.746431    64B2g    7.746435  
     103B3u    7.790045    51Au     7.841327   106Ag     7.841523  
      87B1g    7.841525   107Ag     7.878806    90B2u    7.878949  
      54B3g    7.947270    91B2u    7.948808   104B3u    7.948816  
      55B3g    7.977492    65B2g    7.977493    67B1u    8.019204  
      52Au     8.019212    88B1g    8.036774    92B2u    8.061781  
     105B3u    8.061786    53Au     8.100747   106B3u    8.185402  
      89B1g    8.249221   108Ag     8.276666    90B1g    8.276674  
      66B2g    8.299576    54Au     8.309739    68B1u    8.309744  
     109Ag     8.326360   107B3u    8.362320   108B3u    8.371963  
      93B2u    8.371965    91B1g    8.458467   110Ag     8.458468  
      94B2u    8.463448   109B3u    8.463451    69B1u    8.534163  
     111Ag     8.641090    56B3g    8.664188    67B2g    8.664189  
      92B1g    8.674773    70B1u    8.721806    55Au     8.721808  
      57B3g    8.727093    68B2g    8.727106    93B1g    8.775962  
     112Ag     8.775963   110B3u    8.788502    69B2g    8.789128  
      71B1u    8.873638    56Au     8.873654    58B3g    8.936692  
      70B2g    8.936708   113Ag     8.949502    94B1g    8.949505  
      95B2u    8.995978   111B3u    8.995979    96B2u    9.048805  
     114Ag     9.061378    71B2g    9.075042   112B3u    9.080720  
      97B2u    9.080725    95B1g    9.133777   115Ag     9.133778  
      57Au     9.311874    59B3g    9.323047   113B3u    9.331330  
      96B1g    9.435299   116Ag     9.436907    58Au     9.438683  
      98B2u    9.460641   114B3u    9.460644    59Au     9.511311  
      72B1u    9.511316   115B3u    9.536065    99B2u    9.536073  
      73B1u    9.584540   117Ag     9.590801    97B1g    9.590804  
      60B3g    9.602543    72B2g    9.602547    98B1g    9.641530  
     100B2u    9.727665   116B3u    9.727667   117B3u    9.831330  
     101B2u    9.853607   118Ag     9.886121    99B1g    9.886132  
      60Au     9.891043    73B2g   10.025507    61B3g   10.025508  
      74B1u   10.037494    61Au    10.037497    74B2g   10.111582  
     119Ag    10.135218   100B1g   10.135225    75B1u   10.239149  
      75B2g   10.264061    62B3g   10.264071   120Ag    10.329059  
     102B2u   10.330621   101B1g   10.332410   121Ag    10.332412  
     103B2u   10.392030   118B3u   10.392044    76B1u   10.489101  
      62Au    10.489119   104B2u   10.579764   119B3u   10.579771  
     120B3u   10.614143   122Ag    10.739938   102B1g   10.739953  
     105B2u   10.782792   121B3u   10.782794   123Ag    10.830363  
     103B1g   10.830368    76B2g   10.842074   106B2u   10.862397  
     104B1g   10.923131   122B3u   11.071622   105B1g   11.105075  
     106B1g   11.130994   124Ag    11.131000   125Ag    11.365723  
     107B2u   11.500634   123B3u   11.500651   124B3u   11.536995  
     125B3u   11.667633   108B2u   11.667636   107B1g   11.756525  
     126Ag    11.756539   126B3u   11.808373   108B1g   12.526987  
     127Ag    13.119779   128Ag    13.342788   109B1g   13.342805  
     127B3u   13.450333   109B2u   13.450345   128B3u   13.734452  
     129Ag    26.213468   110B1g   26.213485   130Ag    26.664013  
     129B3u   26.801170   130B3u   27.231351   110B2u   27.231391  

    Final Occupation by Irrep:
             Ag   B1g   B2g   B3g    Au   B1u   B2u   B3u 
    DOCC [     6,    3,    1,    1,    0,    1,    4,    5 ]
    NA   [     6,    3,    1,    1,    0,    1,    4,    5 ]
    NB   [     6,    3,    1,    1,    0,    1,    4,    5 ]

  @DF-RHF Final Energy:  -230.79469833513946

   => Energetics <=

    Nuclear Repulsion Energy =            203.9418081973917936
    One-Electron Energy =                -714.3763122602230169
    Two-Electron Energy =                 279.6398057276917939
    Total Energy =                       -230.7946983351394579

Computation Completed


Properties will be evaluated at   0.000000,   0.000000,   0.000000 [a0]

Properties computed using the SCF density matrix


 Multipole Moments:

 ------------------------------------------------------------------------------------
     Multipole            Electronic (a.u.)      Nuclear  (a.u.)        Total (a.u.)
 ------------------------------------------------------------------------------------

 L = 1.  Multiply by 2.5417464519 to convert [e a0] to [Debye]
 Dipole X            :          0.0000000           -0.0000000           -0.0000000
 Dipole Y            :          0.0000000            0.0000000            0.0000000
 Dipole Z            :          0.0000000            0.0000000            0.0000000
 Magnitude           :                                                    0.0000000

 ------------------------------------------------------------------------------------

*** tstop() called on wr80 at Thu Feb 22 10:15:22 2024
Module time:
	user time   =     264.69 seconds =       4.41 minutes
	system time =       8.95 seconds =       0.15 minutes
	total time  =         12 seconds =       0.20 minutes
Total time:
	user time   =     264.69 seconds =       4.41 minutes
	system time =       8.95 seconds =       0.15 minutes
	total time  =         12 seconds =       0.20 minutes

*** tstart() called on wr80
*** at Thu Feb 22 10:15:22 2024


  //>>>>>>>>>>>>>>>>>>>>>>>>>>>>>>>>>>>//
  //               DFMP2               //
  //<<<<<<<<<<<<<<<<<<<<<<<<<<<<<<<<<<<//

   => Loading Basis Set <=

    Name: (AUG-CC-PVQZ AUX)
    Role: RIFIT
    Keyword: DF_BASIS_MP2
    atoms 1-6  entry C          line   184 file /home/kkirsc3m/miniconda3/envs/psi4_stable/share/psi4/basis/aug-cc-pvqz-ri.gbs 
    atoms 7-12 entry H          line    30 file /home/kkirsc3m/miniconda3/envs/psi4_stable/share/psi4/basis/aug-cc-pvqz-ri.gbs 

	 --------------------------------------------------------
	                          DF-MP2                         
	      2nd-Order Density-Fitted Moller-Plesset Theory     
	              RMP2 Wavefunction,  32 Threads             
	                                                         
	        Rob Parrish, Justin Turney, Andy Simmonett,      
	           Ed Hohenstein, and C. David Sherrill          
	 --------------------------------------------------------

   => Auxiliary Basis Set <=

  Basis Set: (AUG-CC-PVQZ AUX)
    Blend: AUG-CC-PVQZ-RI
    Number of shells: 336
    Number of basis functions: 1488
    Number of Cartesian functions: 2052
    Spherical Harmonics?: true
    Max angular momentum: 5

	 --------------------------------------------------------
	                 NBF =   756, NAUX =  1488
	 --------------------------------------------------------
	   CLASS    FOCC     OCC    AOCC    AVIR     VIR    FVIR
	   PAIRS       6      21      15     735     735       0
	 --------------------------------------------------------

  DFHelper Memory: AOs need 5.679 GiB; user supplied 27.940 GiB. Using in-core AOs.


         ------------------------------------------------------------
                                     CPHF                           
                                  Rob Parrish                       
         ------------------------------------------------------------

  ==> Geometry <==

    Molecular point group: d2h
    Full point group: D2h

    Geometry (in Bohr), charge = 0, multiplicity = 1:

       Center              X                  Y                   Z               Mass       
    ------------   -----------------  -----------------  -----------------  -----------------
         C            2.630206462313     0.000000000000     0.000000000000    12.000000000000
         C            1.315099437933    -2.277828387815     0.000000000000    12.000000000000
         C           -1.315099437933    -2.277828387815     0.000000000000    12.000000000000
         C           -2.630206462313    -0.000000000000     0.000000000000    12.000000000000
         C           -1.315099437933     2.277828387815     0.000000000000    12.000000000000
         C            1.315099437933     2.277828387815     0.000000000000    12.000000000000
         H            4.673445941389     0.000000000000     0.000000000000     1.007825032230
         H            2.336720315241    -4.047319849208     0.000000000000     1.007825032230
         H           -2.336720315241    -4.047319849208     0.000000000000     1.007825032230
         H           -4.673445941389    -0.000000000000     0.000000000000     1.007825032230
         H           -2.336720315241     4.047319849208     0.000000000000     1.007825032230
         H            2.336720315241     4.047319849208     0.000000000000     1.007825032230

  Nuclear repulsion =  203.941808197391794
  Reference energy  = -230.794698335139458

  ==> Basis Set <==

  Basis Set: AUG-CC-PVQZ
    Blend: AUG-CC-PVQZ
    Number of shells: 204
    Number of basis functions: 756
    Number of Cartesian functions: 960
    Spherical Harmonics?: true
    Max angular momentum: 4

  ==> CGRSolver (by Rob Parrish) <==

   Number of roots    =         1
   Preconditioning    =    JACOBI
   Convergence cutoff =     1E-06
   Maximum iterations =       100

  ==> CPHFRHamiltonian (by Rob Parrish) <== 

  ==> MemDFJK: Density-Fitted J/K Matrices <==

    J tasked:                   Yes
    K tasked:                   Yes
    wK tasked:                   No
    OpenMP threads:              32
    Memory [MiB]:             28610
    Algorithm:                 Core
    Schwarz Cutoff:           1E-12
    Mask sparsity (%):       3.2390
    Fitting Condition:        1E-10

   => Auxiliary Basis Set <=

  Basis Set: (AUG-CC-PVQZ AUX)
    Blend: AUG-CC-PVQZ-JKFIT
    Number of shells: 312
    Number of basis functions: 1308
    Number of Cartesian functions: 1794
    Spherical Harmonics?: true
    Max angular momentum: 5

  ==> CPHF Iterations <==

  => Iterations <=

             Iter  Converged  Remaining    Residual
  CGR           1          0          1   8.793E-02
  CGR           2          0          1   1.339E-02
  CGR           3          0          1   2.886E-03
  CGR           4          0          1   4.842E-04
  CGR           5          0          1   7.428E-05
  CGR           6          0          1   7.895E-06
  CGR           7          1          0   9.215E-07

    CGRSolver converged.

  ==> DFCorrGrad: Density-Fitted Correlated Gradients <==

    OpenMP threads:             32
    Integrals threads:          32
    Memory [GiB]:           27.940
    Schwarz Cutoff:          0E+00
    Fitting Condition:       1E-10

   => Auxiliary Basis Set <=

  Basis Set: (AUG-CC-PVQZ AUX)
    Blend: AUG-CC-PVQZ-JKFIT
    Number of shells: 312
    Number of basis functions: 1308
    Number of Cartesian functions: 1794
    Spherical Harmonics?: true
    Max angular momentum: 5

	-----------------------------------------------------------
	 ==================> DF-MP2 Energies <==================== 
	-----------------------------------------------------------
	 Reference Energy          =    -230.7946983351394579 [Eh]
	 Singles Energy            =      -0.0000000000000000 [Eh]
	 Same-Spin Energy          =      -0.2459888483260410 [Eh]
	 Opposite-Spin Energy      =      -0.7691327214533012 [Eh]
	 Correlation Energy        =      -1.0151215697793423 [Eh]
	 Total Energy              =    -231.8098199049188111 [Eh]
	-----------------------------------------------------------
	 ================> DF-SCS-MP2 Energies <================== 
	-----------------------------------------------------------
	 SCS Same-Spin Scale       =       0.3333333333333333 [-]
	 SCS Opposite-Spin Scale   =       1.2000000000000000 [-]
	 SCS Same-Spin Energy      =      -0.0819962827753470 [Eh]
	 SCS Opposite-Spin Energy  =      -0.9229592657439615 [Eh]
	 SCS Correlation Energy    =      -1.0049555485193085 [Eh]
	 SCS Total Energy          =    -231.7996538836587774 [Eh]
	-----------------------------------------------------------


  -Total Gradient:
     Atom            X                  Y                   Z
    ------   -----------------  -----------------  -----------------
       1        0.000005371522     0.000000000000     0.000000000000
       2       -0.000001714521    -0.000006302102     0.000000000000
       3        0.000001714521    -0.000006302102     0.000000000000
       4       -0.000005371522    -0.000000000000     0.000000000000
       5        0.000001714521     0.000006302102     0.000000000000
       6       -0.000001714521     0.000006302102     0.000000000000
       7       -0.000000058742     0.000000000000     0.000000000000
       8       -0.000000916765     0.000001876459     0.000000000000
       9        0.000000916765     0.000001876459     0.000000000000
      10        0.000000058742     0.000000000000     0.000000000000
      11        0.000000916765    -0.000001876459     0.000000000000
      12       -0.000000916765    -0.000001876459     0.000000000000


*** tstop() called on wr80 at Thu Feb 22 10:17:18 2024
Module time:
	user time   =    1347.50 seconds =      22.46 minutes
	system time =      25.07 seconds =       0.42 minutes
	total time  =        116 seconds =       1.93 minutes
Total time:
	user time   =    1612.19 seconds =      26.87 minutes
	system time =      34.02 seconds =       0.57 minutes
	total time  =        128 seconds =       2.13 minutes

    Psi4 stopped on: Thursday, 22 February 2024 10:17AM
    Psi4 wall time for execution: 0:02:08.10


    -----------------------------------------------------------------------
          Psi4: An Open-Source Ab Initio Electronic Structure Package
                               Psi4 1.7 release

                         Git: Rev {HEAD} 6ce35a5 


    D. G. A. Smith, L. A. Burns, A. C. Simmonett, R. M. Parrish,
    M. C. Schieber, R. Galvelis, P. Kraus, H. Kruse, R. Di Remigio,
    A. Alenaizan, A. M. James, S. Lehtola, J. P. Misiewicz, M. Scheurer,
    R. A. Shaw, J. B. Schriber, Y. Xie, Z. L. Glick, D. A. Sirianni,
    J. S. O'Brien, J. M. Waldrop, A. Kumar, E. G. Hohenstein,
    B. P. Pritchard, B. R. Brooks, H. F. Schaefer III, A. Yu. Sokolov,
    K. Patkowski, A. E. DePrince III, U. Bozkaya, R. A. King,
    F. A. Evangelista, J. M. Turney, T. D. Crawford, C. D. Sherrill,
    J. Chem. Phys. 152(18) 184108 (2020). https://doi.org/10.1063/5.0006002

                            Additional Code Authors
    E. T. Seidl, C. L. Janssen, E. F. Valeev, M. L. Leininger,
    J. F. Gonthier, R. M. Richard, H. R. McAlexander, M. Saitow, X. Wang,
    P. Verma, M. H. Lechner, A. Jiang, S. Behnle, A. G. Heide,
    M. F. Herbst, and D. L. Poole

             Previous Authors, Complete List of Code Contributors,
                       and Citations for Specific Modules
    https://github.com/psi4/psi4/blob/master/codemeta.json
    https://github.com/psi4/psi4/graphs/contributors
    http://psicode.org/psi4manual/master/introduction.html#citing-psifour

    -----------------------------------------------------------------------


    Psi4 started on: Thursday, 22 February 2024 10:15AM

    Process ID: 579651
    Host:       wr80
    PSIDATADIR: /home/kkirsc3m/miniconda3/envs/psi4_stable/share/psi4
    Memory:     37.3 GiB
    Threads:    32
    
  ==> Input QCSchema <==

--------------------------------------------------------------------------
{'driver': 'gradient',
 'extras': {'psiapi': True, 'wfn_qcvars_only': True},
 'id': None,
 'keywords': {'E_CONVERGENCE': 1e-08,
              'FREEZE_CORE': 'TRUE',
              'GEOM_MAXITER': 200,
              'G_CONVERGENCE': 'GAU_TIGHT',
              'PARENT_SYMMETRY': 'D2h',
              'REFERENCE': 'RHF',
              'SCF__D_CONVERGENCE': 1e-10,
              'SCF__E_CONVERGENCE': 1e-10,
              'function_kwargs': {}},
 'model': {'basis': 'aug-cc-pvqz', 'method': 'mp2'},
 'molecule': {'atom_labels': ['', '', '', '', '', '', '', '', '', '', '', ''],
              'atomic_numbers': [6, 6, 6, 6, 6, 6, 1, 1, 1, 1, 1, 1],
              'fix_com': True,
              'fix_orientation': True,
              'fragment_charges': [0.0],
              'fragment_multiplicities': [1],
              'fragments': [[0, 1, 2, 3, 4, 5, 6, 7, 8, 9, 10, 11]],
              'geometry': [2.629185841586836, 4.024780031578574e-17, 0.0, 1.315099437932868, -2.2778283878152172, 0.0,
                           -1.315099437932868, -2.2778283878152172, 0.0, -2.629185841586836, -4.024780031578574e-17,
                           0.0, -1.315099437932868, 2.2778283878152172, 0.0, 1.315099437932868, 2.2778283878152172, 0.0,
                           4.6734459413885014, 7.154150766387021e-17, 0.0, 2.3367203152407057, -4.047319849207594, 0.0,
                           -2.3367203152407057, -4.047319849207594, 0.0, -4.6734459413885014, -7.154150766387021e-17,
                           0.0, -2.3367203152407057, 4.047319849207594, 0.0, 2.3367203152407057, 4.047319849207594,
                           0.0],
              'mass_numbers': [12, 12, 12, 12, 12, 12, 1, 1, 1, 1, 1, 1],
              'masses': [12.0, 12.0, 12.0, 12.0, 12.0, 12.0, 1.00782503223, 1.00782503223, 1.00782503223, 1.00782503223,
                         1.00782503223, 1.00782503223],
              'molecular_charge': 0.0,
              'molecular_multiplicity': 1,
              'name': 'conformer',
              'provenance': {'creator': 'QCElemental',
                             'routine': 'qcelemental.molparse.from_string',
                             'version': 'v0.25.1'},
              'real': [True, True, True, True, True, True, True, True, True, True, True, True],
              'schema_name': 'qcschema_molecule',
              'schema_version': 2,
              'symbols': ['C', 'C', 'C', 'C', 'C', 'C', 'H', 'H', 'H', 'H', 'H', 'H'],
              'validated': True},
 'protocols': {'stdout': True},
 'provenance': {'creator': 'QCElemental', 'routine': 'qcelemental.models.results', 'version': 'v0.25.1'},
 'schema_name': 'qcschema_input',
 'schema_version': 1}
--------------------------------------------------------------------------

Scratch directory: /tmp/slurm.157056./
gradient() will perform analytic gradient computation.
    SCF Algorithm Type (re)set to DF.

*** tstart() called on wr80
*** at Thu Feb 22 10:17:19 2024

   => Loading Basis Set <=

    Name: AUG-CC-PVQZ
    Role: ORBITAL
    Keyword: BASIS
    atoms 1-6  entry C          line   303 file /home/kkirsc3m/miniconda3/envs/psi4_stable/share/psi4/basis/aug-cc-pvqz.gbs 
    atoms 7-12 entry H          line    40 file /home/kkirsc3m/miniconda3/envs/psi4_stable/share/psi4/basis/aug-cc-pvqz.gbs 


         ---------------------------------------------------------
                                   SCF
               by Justin Turney, Rob Parrish, Andy Simmonett
                          and Daniel G. A. Smith
                              RHF Reference
                       32 Threads,  38146 MiB Core
         ---------------------------------------------------------

  ==> Geometry <==

    Molecular point group: d2h
    Full point group: D2h

    Geometry (in Bohr), charge = 0, multiplicity = 1:

       Center              X                  Y                   Z               Mass       
    ------------   -----------------  -----------------  -----------------  -----------------
         C            2.629185841587     0.000000000000     0.000000000000    12.000000000000
         C            1.315099437933    -2.277828387815     0.000000000000    12.000000000000
         C           -1.315099437933    -2.277828387815     0.000000000000    12.000000000000
         C           -2.629185841587    -0.000000000000     0.000000000000    12.000000000000
         C           -1.315099437933     2.277828387815     0.000000000000    12.000000000000
         C            1.315099437933     2.277828387815     0.000000000000    12.000000000000
         H            4.673445941389     0.000000000000     0.000000000000     1.007825032230
         H            2.336720315241    -4.047319849208     0.000000000000     1.007825032230
         H           -2.336720315241    -4.047319849208     0.000000000000     1.007825032230
         H           -4.673445941389    -0.000000000000     0.000000000000     1.007825032230
         H           -2.336720315241     4.047319849208     0.000000000000     1.007825032230
         H            2.336720315241     4.047319849208     0.000000000000     1.007825032230

  Running in d2h symmetry.

  Rotational constants: A =      0.19114  B =      0.19106  C =      0.09555 [cm^-1]
  Rotational constants: A =   5730.17116  B =   5727.80943  C =   2864.49503 [MHz]
  Nuclear repulsion =  203.959087226515805

  Charge       = 0
  Multiplicity = 1
  Electrons    = 42
  Nalpha       = 21
  Nbeta        = 21

  ==> Algorithm <==

  SCF Algorithm Type is DF.
  DIIS enabled.
  MOM disabled.
  Fractional occupation disabled.
  Guess Type is SAD.
  Energy threshold   = 1.00e-10
  Density threshold  = 1.00e-10
  Integral threshold = 1.00e-12

  ==> Primary Basis <==

  Basis Set: AUG-CC-PVQZ
    Blend: AUG-CC-PVQZ
    Number of shells: 204
    Number of basis functions: 756
    Number of Cartesian functions: 960
    Spherical Harmonics?: true
    Max angular momentum: 4

   => Loading Basis Set <=

    Name: (AUG-CC-PVQZ AUX)
    Role: JKFIT
    Keyword: DF_BASIS_SCF
    atoms 1-6  entry C          line   178 file /home/kkirsc3m/miniconda3/envs/psi4_stable/share/psi4/basis/aug-cc-pvqz-jkfit.gbs 
    atoms 7-12 entry H          line    70 file /home/kkirsc3m/miniconda3/envs/psi4_stable/share/psi4/basis/aug-cc-pvqz-jkfit.gbs 

  ==> Integral Setup <==

  DFHelper Memory: AOs need 5.679 GiB; user supplied 27.940 GiB. Using in-core AOs.

  ==> MemDFJK: Density-Fitted J/K Matrices <==

    J tasked:                   Yes
    K tasked:                   Yes
    wK tasked:                   No
    OpenMP threads:              32
    Memory [MiB]:             28610
    Algorithm:                 Core
    Schwarz Cutoff:           1E-12
    Mask sparsity (%):       3.2390
    Fitting Condition:        1E-10

   => Auxiliary Basis Set <=

  Basis Set: (AUG-CC-PVQZ AUX)
    Blend: AUG-CC-PVQZ-JKFIT
    Number of shells: 312
    Number of basis functions: 1308
    Number of Cartesian functions: 1794
    Spherical Harmonics?: true
    Max angular momentum: 5

  Minimum eigenvalue in the overlap matrix is 3.7887148639E-07.
  Reciprocal condition number of the overlap matrix is 2.4597010177E-08.
    Using symmetric orthogonalization.

  ==> Pre-Iterations <==

  SCF Guess: Superposition of Atomic Densities via on-the-fly atomic UHF (no occupation information).

   -------------------------
    Irrep   Nso     Nmo    
   -------------------------
     Ag       130     130 
     B1g      110     110 
     B2g       76      76 
     B3g       62      62 
     Au        62      62 
     B1u       76      76 
     B2u      110     110 
     B3u      130     130 
   -------------------------
    Total     756     756
   -------------------------

  ==> Iterations <==

                           Total Energy        Delta E     RMS |[F,P]|

   @DF-RHF iter SAD:  -230.22318198108189   -2.30223e+02   0.00000e+00 
   @DF-RHF iter   1:  -230.61195979931381   -3.88778e-01   1.99066e-03 DIIS/ADIIS
   @DF-RHF iter   2:  -230.75529381867079   -1.43334e-01   9.92778e-04 DIIS/ADIIS
   @DF-RHF iter   3:  -230.79308741026256   -3.77936e-02   1.61173e-04 DIIS/ADIIS
   @DF-RHF iter   4:  -230.79467292747012   -1.58552e-03   2.01321e-05 DIIS
   @DF-RHF iter   5:  -230.79470427888424   -3.13514e-05   3.64960e-06 DIIS
   @DF-RHF iter   6:  -230.79470536469611   -1.08581e-06   4.17752e-07 DIIS
   @DF-RHF iter   7:  -230.79470538181124   -1.71151e-08   6.77033e-08 DIIS
   @DF-RHF iter   8:  -230.79470538218578   -3.74541e-10   2.89295e-08 DIIS
   @DF-RHF iter   9:  -230.79470538223418   -4.84022e-11   5.86617e-09 DIIS
   @DF-RHF iter  10:  -230.79470538223825   -4.06430e-12   8.01984e-10 DIIS
   @DF-RHF iter  11:  -230.79470538223796    2.84217e-13   1.11001e-10 DIIS
   @DF-RHF iter  12:  -230.79470538223865   -6.82121e-13   1.54770e-11 DIIS
  Energy and wave function converged.


  ==> Post-Iterations <==

    Orbital Energies [Eh]
    ---------------------

    Doubly Occupied:                                                      

       1Ag   -11.234484     1B3u  -11.233903     1B2u  -11.233897  
       2Ag   -11.232644     1B1g  -11.232640     2B3u  -11.232026  
       3Ag    -1.151344     2B2u   -1.015182     3B3u   -1.015149  
       2B1g   -0.824388     4Ag    -0.824220     5Ag    -0.710336  
       4B3u   -0.643569     3B2u   -0.620044     4B2u   -0.588411  
       5B3u   -0.588235     1B1u   -0.503417     3B1g   -0.495096  
       6Ag    -0.494760     1B2g   -0.337307     1B3g   -0.337267  

    Virtual:                                                              

       7Ag     0.026486     5B2u    0.030430     6B3u    0.030437  
       4B1g    0.042490     8Ag     0.042491     7B3u    0.058665  
       2B1u    0.082942     2B3g    0.090161     2B2g    0.090171  
       1Au     0.097733     3B1u    0.097777     9Ag     0.100275  
       6B2u    0.101378     8B3u    0.101393     7B2u    0.105490  
      10Ag     0.113616     5B1g    0.113617    11Ag     0.117319  
       8B2u    0.125676     9B3u    0.125690     6B1g    0.134634  
      12Ag     0.134638    10B3u    0.138667     3B2g    0.140171  
       2Au     0.140542     4B1u    0.140615     7B1g    0.201887  
       5B1u    0.213252    11B3u    0.213493     9B2u    0.213496  
       8B1g    0.219255    13Ag     0.219263    14Ag     0.231468  
      15Ag     0.247895     9B1g    0.247921     3B3g    0.256103  
       4B2g    0.256104    10B2u    0.259982    12B3u    0.264360  
      13B3u    0.268290    14B3u    0.286438    11B2u    0.286448  
      16Ag     0.291804     5B2g    0.291948    10B1g    0.296134  
      17Ag     0.296159    12B2u    0.298538    15B3u    0.298541  
       4B3g    0.319266     6B2g    0.319282     3Au     0.321294  
       6B1u    0.321318    18Ag     0.324563     5B3g    0.332657  
       4Au     0.348467     7B1u    0.348476     8B1u    0.361567  
      13B2u    0.366688    16B3u    0.366696    14B2u    0.370090  
      17B3u    0.402690    15B2u    0.402749     7B2g    0.407798  
      11B1g    0.418766    19Ag     0.418780    12B1g    0.430184  
       8B2g    0.431002    20Ag     0.431565    13B1g    0.431598  
       9B1u    0.438082     5Au     0.438151    21Ag     0.444285  
      14B1g    0.454975    22Ag     0.454992    18B3u    0.457458  
      19B3u    0.474482    16B2u    0.474545    10B1u    0.475555  
      23Ag     0.503724    17B2u    0.504239    20B3u    0.504275  
      24Ag     0.514113    15B1g    0.514121    16B1g    0.518798  
      25Ag     0.518840     6B3g    0.518931     9B2g    0.518980  
      21B3u    0.529933     6Au     0.536219    18B2u    0.537311  
      22B3u    0.553264    23B3u    0.577400    19B2u    0.577452  
      10B2g    0.579010     7B3g    0.579034    17B1g    0.584191  
      24B3u    0.599880    20B2u    0.599943    26Ag     0.642258  
      11B1u    0.651062     7Au     0.658841    12B1u    0.658850  
      25B3u    0.679421    21B2u    0.679512    18B1g    0.693929  
      27Ag     0.693936    28Ag     0.695884    26B3u    0.700018  
      19B1g    0.705285    11B2g    0.705834     8B3g    0.712697  
       8Au     0.730435    13B1u    0.730455    29Ag     0.736264  
      12B2g    0.746263     9B3g    0.746343    14B1u    0.757869  
      20B1g    0.769985    30Ag     0.770053    10B3g    0.777225  
      13B2g    0.777257    27B3u    0.793144    22B2u    0.793173  
       9Au     0.804154    15B1u    0.804183    11B3g    0.829394  
      31Ag     0.833653    28B3u    0.836283    23B2u    0.836341  
      21B1g    0.838441    32Ag     0.838457    24B2u    0.864072  
      14B2g    0.875498    22B1g    0.890458    33Ag     0.890465  
      29B3u    0.894322    30B3u    0.916015    25B2u    0.916029  
      23B1g    0.922009    34Ag     0.922044    24B1g    0.928838  
      26B2u    0.939472    12B3g    0.952951    15B2g    0.953035  
      31B3u    0.958331    27B2u    0.958368    35Ag     0.978702  
      16B1u    0.987914    10Au     0.987940    36Ag     0.991048  
      25B1g    0.991074    32B3u    1.013139    26B1g    1.027558  
      37Ag     1.027561    33B3u    1.037559    11Au     1.044748  
      28B2u    1.054813    34B3u    1.054837    17B1u    1.072549  
      35B3u    1.093365    18B1u    1.098217    12Au     1.098273  
      16B2g    1.115127    27B1g    1.130878    38Ag     1.151284  
      17B2g    1.156133    13B3g    1.156174    39Ag     1.170682  
      28B1g    1.170709    29B2u    1.178481    36B3u    1.178520  
      37B3u    1.199525    30B2u    1.199621    31B2u    1.219102  
      38B3u    1.239445    19B1u    1.246259    13Au     1.249272  
      20B1u    1.249311    40Ag     1.277676    29B1g    1.295034  
      30B1g    1.299361    41Ag     1.299379    14Au     1.323670  
      14B3g    1.324251    42Ag     1.340903    32B2u    1.344216  
      39B3u    1.344273    15B3g    1.353042    18B2g    1.353083  
      19B2g    1.363091    16B3g    1.375297    20B2g    1.375411  
      40B3u    1.384203    33B2u    1.384278    31B1g    1.403003  
      43Ag     1.403094    15Au     1.404878    21B1u    1.404944  
      34B2u    1.432429    22B1u    1.449634    17B3g    1.505504  
      21B2g    1.505696    44Ag     1.525801    32B1g    1.525803  
      35B2u    1.529413    41B3u    1.529514    33B1g    1.530183  
      45Ag     1.530221    42B3u    1.557780    16Au     1.568671  
      23B1u    1.568711    18B3g    1.582513    22B2g    1.582527  
      23B2g    1.590961    43B3u    1.592305    36B2u    1.592311  
      46Ag     1.599235    34B1g    1.599249    47Ag     1.637745  
      37B2u    1.659387    44B3u    1.670321    24B1u    1.677954  
      45B3u    1.724707    38B2u    1.724725    39B2u    1.736548  
      17Au     1.758844    25B1u    1.758853    26B1u    1.770782  
      35B1g    1.787605    48Ag     1.787696    46B3u    1.789007  
      47B3u    1.815324    40B2u    1.815399    36B1g    1.818267  
      49Ag     1.847287    24B2g    1.858393    37B1g    1.876966  
      18Au     1.885153    50Ag     1.893785    38B1g    1.893789  
      39B1g    1.911168    51Ag     1.911268    27B1u    1.917286  
      19Au     1.917483    25B2g    1.935106    19B3g    1.935287  
      20B3g    1.943780    48B3u    1.977580    41B2u    1.977649  
      21B3g    2.023871    26B2g    2.023992    52Ag     2.031222  
      40B1g    2.031302    28B1u    2.033221    49B3u    2.035939  
      50B3u    2.044023    53Ag     2.049323    42B2u    2.062729  
      51B3u    2.062729    27B2g    2.073789    29B1u    2.085985  
      20Au     2.085988    54Ag     2.096002    30B1u    2.101353  
      31B1u    2.117534    21Au     2.117569    41B1g    2.135990  
      22B3g    2.136346    43B2u    2.150290    52B3u    2.150531  
      44B2u    2.180204    28B2g    2.195348    23B3g    2.195437  
      53B3u    2.236993    54B3u    2.241553    45B2u    2.241602  
      42B1g    2.253201    55Ag     2.253214    56Ag     2.260156  
      22Au     2.273690    55B3u    2.278604    46B2u    2.278644  
      24B3g    2.293125    29B2g    2.293273    32B1u    2.295611  
      23Au     2.295733    43B1g    2.297268    57Ag     2.297292  
      47B2u    2.303888    44B1g    2.376978    58Ag     2.377053  
      25B3g    2.392641    59Ag     2.394255    30B2g    2.401246  
      33B1u    2.401325    24Au     2.401363    60Ag     2.405020  
      45B1g    2.405098    34B1u    2.406727    48B2u    2.419752  
      56B3u    2.420021    61Ag     2.426769    31B2g    2.441486  
      26B3g    2.441496    46B1g    2.444366    49B2u    2.447238  
      57B3u    2.447351    32B2g    2.509756    27B3g    2.509893  
      50B2u    2.511394    51B2u    2.523480    58B3u    2.523612  
      33B2g    2.530205    59B3u    2.539526    28B3g    2.546107  
      34B2g    2.546198    47B1g    2.569803    62Ag     2.569983  
      25Au     2.601264    35B1u    2.601321    60B3u    2.611285  
      48B1g    2.617648    63Ag     2.617711    64Ag     2.619109  
      36B1u    2.640443    61B3u    2.666044    52B2u    2.666109  
      49B1g    2.707401    65Ag     2.707757    29B3g    2.720789  
      35B2g    2.721034    26Au     2.735788    37B1u    2.735992  
      53B2u    2.783859    50B1g    2.792143    66Ag     2.792218  
      38B1u    2.815556    27Au     2.818435    39B1u    2.818501  
      54B2u    2.822531    62B3u    2.822556    51B1g    2.832185  
      67Ag     2.832668    63B3u    2.844374    36B2g    2.872460  
      68Ag     2.889624    52B1g    2.889860    28Au     2.893474  
      55B2u    2.973061    64B3u    2.973102    30B3g    2.999950  
      37B2g    3.000032    65B3u    3.006308    38B2g    3.016630  
      56B2u    3.031534    69Ag     3.034182    53B1g    3.067215  
      57B2u    3.103674    66B3u    3.103678    29Au     3.104857  
      40B1u    3.104919    30Au     3.167748    31B3g    3.173952  
      70Ag     3.173984    54B1g    3.174107    39B2g    3.174239  
      32B3g    3.181494    67B3u    3.202160    58B2u    3.202437  
      41B1u    3.278215    68B3u    3.287251    71Ag     3.304773  
      55B1g    3.304956    69B3u    3.318653    59B2u    3.318824  
      72Ag     3.344999    56B1g    3.345311    31Au     3.356193  
      42B1u    3.356388    57B1g    3.392445    60B2u    3.437233  
      70B3u    3.437364    33B3g    3.470728    40B2g    3.474365  
      73Ag     3.508217    34B3g    3.525281    41B2g    3.525489  
      58B1g    3.532852    59B1g    3.589571    74Ag     3.589983  
      71B3u    3.597488    61B2u    3.597546    62B2u    3.611461  
      60B1g    3.639400    75Ag     3.639448    63B2u    3.640982  
      43B1u    3.686638    72B3u    3.745914    73B3u    3.753699  
      64B2u    3.754140    42B2g    3.787684    35B3g    3.787727  
      76Ag     3.806112    44B1u    3.835619    32Au     3.835899  
      77Ag     3.882576    61B1g    3.882888    33Au     3.888217  
      45B1u    3.888377    43B2g    3.951344    36B3g    3.951464  
      74B3u    3.956469    75B3u    3.971077    65B2u    3.971130  
      44B2g    4.020187    78Ag     4.036389    62B1g    4.036642  
      76B3u    4.053518    66B2u    4.053789    77B3u    4.069241  
      46B1u    4.081774    34Au     4.081777    79Ag     4.127432  
      63B1g    4.133460    80Ag     4.133535    78B3u    4.227128  
      67B2u    4.227228    81Ag     4.273906    64B1g    4.274615  
      82Ag     4.274619    79B3u    4.282335    45B2g    4.303019  
      37B3g    4.329017    35Au     4.362805    46B2g    4.373069  
      38B3g    4.373138    65B1g    4.382342    83Ag     4.382343  
      80B3u    4.385190    36Au     4.404440    47B1u    4.404549  
      37Au     4.410994    66B1g    4.412316    39B3g    4.443169  
      47B2g    4.443350    67B1g    4.501681    68B2u    4.502153  
      81B3u    4.502218    48B1u    4.504913    84Ag     4.533801  
      68B1g    4.534303    49B1u    4.580069    38Au     4.580615  
      69B2u    4.590528    85Ag     4.631829    70B2u    4.644653  
      82B3u    4.644795    48B2g    4.651142    83B3u    4.819220  
      84B3u    4.844071    71B2u    4.853637    85B3u    4.853893  
      86Ag     4.929050    50B1u    4.930296    39Au     4.930941  
      69B1g    4.944884    87Ag     4.945134    49B2g    4.956559  
      40B3g    4.956937    40Au     5.009132    70B1g    5.028968  
      72B2u    5.051032    73B2u    5.087427    86B3u    5.087845  
      71B1g    5.102653    88Ag     5.103315    50B2g    5.143254  
      74B2u    5.393958    87B3u    5.394149    88B3u    5.404221  
      89Ag     5.431095    72B1g    5.431108    75B2u    5.613283  
      89B3u    5.613363    90Ag     5.671320    73B1g    5.671361  
      51B1u    5.677553    90B3u    5.731714    74B1g    5.748516  
      91Ag     5.785951    41B3g    5.816031    52B1u    5.849651  
      41Au     5.849835    92Ag     5.897632    42B3g    5.960962  
      75B1g    5.994091    76B2u    6.011099    53B1u    6.015461  
      43B3g    6.066380    51B2g    6.066690    44B3g    6.087647  
      52B2g    6.087839    91B3u    6.126216    77B2u    6.126546  
      76B1g    6.265455    93Ag     6.265737    94Ag     6.273364  
      54B1u    6.292216    42Au     6.292540    53B2g    6.299450  
      45B3g    6.299456    55B1u    6.325747    95Ag     6.367113  
      77B1g    6.367303    78B2u    6.392942    92B3u    6.392948  
      43Au     6.398237    56B1u    6.398885    79B2u    6.449824  
      93B3u    6.449878    80B2u    6.467622    81B2u    6.496983  
      57B1u    6.539753    96Ag     6.555675    44Au     6.608023  
      58B1u    6.608027    54B2g    6.655747    55B2g    6.667654  
      46B3g    6.667931    47B3g    6.668191    78B1g    6.693186  
      97Ag     6.693745    94B3u    6.708269    59B1u    6.745795  
      45Au     6.746259    60B1u    6.776890    95B3u    6.795186  
      82B2u    6.795192    56B2g    6.825633    57B2g    6.848423  
      48B3g    6.848838    79B1g    6.912450    83B2u    6.914494  
      98Ag     6.930525    80B1g    6.931007    49B3g    6.953631  
      58B2g    6.953656    84B2u    6.955789    99Ag     6.975311  
      81B1g    6.975318   100Ag     6.975900    85B2u    7.020695  
      96B3u    7.021176    59B2g    7.097591    60B2g    7.109297  
      50B3g    7.109533    61B1u    7.109643    46Au     7.109819  
      47Au     7.119013   101Ag     7.145264    82B1g    7.145586  
     102Ag     7.195676    83B1g    7.200968    48Au     7.215303  
      62B1u    7.215378    51B3g    7.238251   103Ag     7.256524  
      84B1g    7.256665    86B2u    7.269659    97B3u    7.269933  
      98B3u    7.307231    87B2u    7.308019    63B1u    7.385545  
      61B2g    7.390729    85B1g    7.410327   104Ag     7.410910  
      64B1u    7.416936    49Au     7.417125    99B3u    7.417276  
     100B3u    7.456491   101B3u    7.528952    88B2u    7.529252  
     102B3u    7.568306    89B2u    7.568540    65B1u    7.593858  
     105Ag     7.594566    86B1g    7.594802    62B2g    7.634010  
      66B1u    7.671659    50Au     7.671929    63B2g    7.712230  
      52B3g    7.712720    64B2g    7.746661    53B3g    7.746791  
     103B3u    7.790216    87B1g    7.841367   106Ag     7.841484  
      51Au     7.841593   107Ag     7.878484    90B2u    7.879420  
      54B3g    7.946927   104B3u    7.948742    91B2u    7.949584  
      55B3g    7.977836    65B2g    7.977892    52Au     8.019273  
      67B1u    8.019489    88B1g    8.036905    92B2u    8.061925  
     105B3u    8.062150    53Au     8.101199   106B3u    8.185644  
      89B1g    8.249315   108Ag     8.276452    90B1g    8.276748  
      66B2g    8.299628    54Au     8.309258    68B1u    8.309755  
     109Ag     8.326995   107B3u    8.362021   108B3u    8.372006  
      93B2u    8.372101   110Ag     8.458752    91B1g    8.458907  
     109B3u    8.463607    94B2u    8.463799    69B1u    8.534132  
     111Ag     8.641092    67B2g    8.664114    56B3g    8.664387  
      92B1g    8.675359    70B1u    8.721674    55Au     8.721827  
      57B3g    8.726877    68B2g    8.727097   112Ag     8.776132  
      93B1g    8.776544   110B3u    8.788547    69B2g    8.789026  
      56Au     8.874072    71B1u    8.874525    70B2g    8.936985  
      58B3g    8.937630   113Ag     8.949579    94B1g    8.949810  
      95B2u    8.995885   111B3u    8.996028    96B2u    9.048764  
     114Ag     9.060947    71B2g    9.075933   112B3u    9.080462  
      97B2u    9.080907    95B1g    9.133704   115Ag     9.133769  
      57Au     9.312667    59B3g    9.322776   113B3u    9.331509  
      96B1g    9.435918   116Ag     9.436687    58Au     9.438954  
     114B3u    9.459808    98B2u    9.461068    59Au     9.510717  
      72B1u    9.511309   115B3u    9.535530    99B2u    9.536190  
      73B1u    9.584562   117Ag     9.590435    97B1g    9.590784  
      60B3g    9.602017    72B2g    9.602618    98B1g    9.641417  
     100B2u    9.727827   116B3u    9.728178   117B3u    9.831064  
     101B2u    9.853426    99B1g    9.886326   118Ag     9.886388  
      60Au     9.890978    73B2g   10.025354    61B3g   10.025688  
      74B1u   10.037224    61Au    10.037561    74B2g   10.111534  
     100B1g   10.134759   119Ag    10.135282    75B1u   10.237861  
      75B2g   10.261348    62B3g   10.264086   120Ag    10.328587  
     102B2u   10.329825   121Ag    10.332003   101B1g   10.332449  
     118B3u   10.392355   103B2u   10.393025    76B1u   10.486619  
      62Au    10.489168   104B2u   10.579682   119B3u   10.579947  
     120B3u   10.614836   102B1g   10.740536   122Ag    10.740807  
     121B3u   10.782061   105B2u   10.783171   123Ag    10.830101  
     103B1g   10.830385    76B2g   10.841208   106B2u   10.862813  
     104B1g   10.923543   122B3u   11.071512   105B1g   11.105908  
     106B1g   11.130463   124Ag    11.130957   125Ag    11.366395  
     107B2u   11.499302   123B3u   11.500702   124B3u   11.537192  
     108B2u   11.667722   125B3u   11.668430   126Ag    11.756340  
     107B1g   11.756996   126B3u   11.809426   108B1g   12.526776  
     127Ag    13.118870   128Ag    13.340965   109B1g   13.343172  
     127B3u   13.447817   109B2u   13.450547   128B3u   13.734235  
     129Ag    26.211819   110B1g   26.214823   130Ag    26.664288  
     129B3u   26.800906   130B3u   27.231715   110B2u   27.233043  

    Final Occupation by Irrep:
             Ag   B1g   B2g   B3g    Au   B1u   B2u   B3u 
    DOCC [     6,    3,    1,    1,    0,    1,    4,    5 ]
    NA   [     6,    3,    1,    1,    0,    1,    4,    5 ]
    NB   [     6,    3,    1,    1,    0,    1,    4,    5 ]

  @DF-RHF Final Energy:  -230.79470538223865

   => Energetics <=

    Nuclear Repulsion Energy =            203.9590872265158055
    One-Electron Energy =                -714.4109443297459165
    Two-Electron Energy =                 279.6571517209914646
    Total Energy =                       -230.7947053822386465

Computation Completed


Properties will be evaluated at   0.000000,   0.000000,   0.000000 [a0]

Properties computed using the SCF density matrix


 Multipole Moments:

 ------------------------------------------------------------------------------------
     Multipole            Electronic (a.u.)      Nuclear  (a.u.)        Total (a.u.)
 ------------------------------------------------------------------------------------

 L = 1.  Multiply by 2.5417464519 to convert [e a0] to [Debye]
 Dipole X            :          0.0000000           -0.0000000           -0.0000000
 Dipole Y            :          0.0000000            0.0000000            0.0000000
 Dipole Z            :          0.0000000            0.0000000            0.0000000
 Magnitude           :                                                    0.0000000

 ------------------------------------------------------------------------------------

*** tstop() called on wr80 at Thu Feb 22 10:17:30 2024
Module time:
	user time   =     262.16 seconds =       4.37 minutes
	system time =       6.54 seconds =       0.11 minutes
	total time  =         11 seconds =       0.18 minutes
Total time:
	user time   =    1879.83 seconds =      31.33 minutes
	system time =      40.92 seconds =       0.68 minutes
	total time  =        140 seconds =       2.33 minutes

*** tstart() called on wr80
*** at Thu Feb 22 10:17:30 2024


  //>>>>>>>>>>>>>>>>>>>>>>>>>>>>>>>>>>>//
  //               DFMP2               //
  //<<<<<<<<<<<<<<<<<<<<<<<<<<<<<<<<<<<//

   => Loading Basis Set <=

    Name: (AUG-CC-PVQZ AUX)
    Role: RIFIT
    Keyword: DF_BASIS_MP2
    atoms 1-6  entry C          line   184 file /home/kkirsc3m/miniconda3/envs/psi4_stable/share/psi4/basis/aug-cc-pvqz-ri.gbs 
    atoms 7-12 entry H          line    30 file /home/kkirsc3m/miniconda3/envs/psi4_stable/share/psi4/basis/aug-cc-pvqz-ri.gbs 

	 --------------------------------------------------------
	                          DF-MP2                         
	      2nd-Order Density-Fitted Moller-Plesset Theory     
	              RMP2 Wavefunction,  32 Threads             
	                                                         
	        Rob Parrish, Justin Turney, Andy Simmonett,      
	           Ed Hohenstein, and C. David Sherrill          
	 --------------------------------------------------------

   => Auxiliary Basis Set <=

  Basis Set: (AUG-CC-PVQZ AUX)
    Blend: AUG-CC-PVQZ-RI
    Number of shells: 336
    Number of basis functions: 1488
    Number of Cartesian functions: 2052
    Spherical Harmonics?: true
    Max angular momentum: 5

	 --------------------------------------------------------
	                 NBF =   756, NAUX =  1488
	 --------------------------------------------------------
	   CLASS    FOCC     OCC    AOCC    AVIR     VIR    FVIR
	   PAIRS       6      21      15     735     735       0
	 --------------------------------------------------------

  DFHelper Memory: AOs need 5.679 GiB; user supplied 27.940 GiB. Using in-core AOs.


         ------------------------------------------------------------
                                     CPHF                           
                                  Rob Parrish                       
         ------------------------------------------------------------

  ==> Geometry <==

    Molecular point group: d2h
    Full point group: D2h

    Geometry (in Bohr), charge = 0, multiplicity = 1:

       Center              X                  Y                   Z               Mass       
    ------------   -----------------  -----------------  -----------------  -----------------
         C            2.629185841587     0.000000000000     0.000000000000    12.000000000000
         C            1.315099437933    -2.277828387815     0.000000000000    12.000000000000
         C           -1.315099437933    -2.277828387815     0.000000000000    12.000000000000
         C           -2.629185841587    -0.000000000000     0.000000000000    12.000000000000
         C           -1.315099437933     2.277828387815     0.000000000000    12.000000000000
         C            1.315099437933     2.277828387815     0.000000000000    12.000000000000
         H            4.673445941389     0.000000000000     0.000000000000     1.007825032230
         H            2.336720315241    -4.047319849208     0.000000000000     1.007825032230
         H           -2.336720315241    -4.047319849208     0.000000000000     1.007825032230
         H           -4.673445941389    -0.000000000000     0.000000000000     1.007825032230
         H           -2.336720315241     4.047319849208     0.000000000000     1.007825032230
         H            2.336720315241     4.047319849208     0.000000000000     1.007825032230

  Nuclear repulsion =  203.959087226515805
  Reference energy  = -230.794705382238647

  ==> Basis Set <==

  Basis Set: AUG-CC-PVQZ
    Blend: AUG-CC-PVQZ
    Number of shells: 204
    Number of basis functions: 756
    Number of Cartesian functions: 960
    Spherical Harmonics?: true
    Max angular momentum: 4

  ==> CGRSolver (by Rob Parrish) <==

   Number of roots    =         1
   Preconditioning    =    JACOBI
   Convergence cutoff =     1E-06
   Maximum iterations =       100

  ==> CPHFRHamiltonian (by Rob Parrish) <== 

  ==> MemDFJK: Density-Fitted J/K Matrices <==

    J tasked:                   Yes
    K tasked:                   Yes
    wK tasked:                   No
    OpenMP threads:              32
    Memory [MiB]:             28610
    Algorithm:                 Core
    Schwarz Cutoff:           1E-12
    Mask sparsity (%):       3.2390
    Fitting Condition:        1E-10

   => Auxiliary Basis Set <=

  Basis Set: (AUG-CC-PVQZ AUX)
    Blend: AUG-CC-PVQZ-JKFIT
    Number of shells: 312
    Number of basis functions: 1308
    Number of Cartesian functions: 1794
    Spherical Harmonics?: true
    Max angular momentum: 5

  ==> CPHF Iterations <==

  => Iterations <=

             Iter  Converged  Remaining    Residual
  CGR           1          0          1   8.795E-02
  CGR           2          0          1   1.339E-02
  CGR           3          0          1   2.885E-03
  CGR           4          0          1   4.840E-04
  CGR           5          0          1   7.481E-05
  CGR           6          0          1   1.196E-05
  CGR           7          0          1   3.542E-06
  CGR           8          1          0   4.213E-07

    CGRSolver converged.

  ==> DFCorrGrad: Density-Fitted Correlated Gradients <==

    OpenMP threads:             32
    Integrals threads:          32
    Memory [GiB]:           27.940
    Schwarz Cutoff:          0E+00
    Fitting Condition:       1E-10

   => Auxiliary Basis Set <=

  Basis Set: (AUG-CC-PVQZ AUX)
    Blend: AUG-CC-PVQZ-JKFIT
    Number of shells: 312
    Number of basis functions: 1308
    Number of Cartesian functions: 1794
    Spherical Harmonics?: true
    Max angular momentum: 5

	-----------------------------------------------------------
	 ==================> DF-MP2 Energies <==================== 
	-----------------------------------------------------------
	 Reference Energy          =    -230.7947053822386465 [Eh]
	 Singles Energy            =      -0.0000000000000000 [Eh]
	 Same-Spin Energy          =      -0.2459897301661082 [Eh]
	 Opposite-Spin Energy      =      -0.7691240230198366 [Eh]
	 Correlation Energy        =      -1.0151137531859449 [Eh]
	 Total Energy              =    -231.8098191354245898 [Eh]
	-----------------------------------------------------------
	 ================> DF-SCS-MP2 Energies <================== 
	-----------------------------------------------------------
	 SCS Same-Spin Scale       =       0.3333333333333333 [-]
	 SCS Opposite-Spin Scale   =       1.2000000000000000 [-]
	 SCS Same-Spin Energy      =      -0.0819965767220361 [Eh]
	 SCS Opposite-Spin Energy  =      -0.9229488276238039 [Eh]
	 SCS Correlation Energy    =      -1.0049454043458399 [Eh]
	 SCS Total Energy          =    -231.7996507865844933 [Eh]
	-----------------------------------------------------------


  -Total Gradient:
     Atom            X                  Y                   Z
    ------   -----------------  -----------------  -----------------
       1       -0.000758352582    -0.000000000000     0.000000000000
       2        0.000153893729     0.000153801220     0.000000000000
       3       -0.000153893729     0.000153801220     0.000000000000
       4        0.000758352582     0.000000000000     0.000000000000
       5       -0.000153893729    -0.000153801220     0.000000000000
       6        0.000153893729    -0.000153801220     0.000000000000
       7        0.000355221798     0.000000000000     0.000000000000
       8       -0.000017385868    -0.000017790580     0.000000000000
[...]
      4   C                0.00  0.00 -0.00   -0.00 -0.00  0.09    0.00  0.00  0.05   
      5   C               -0.00 -0.00  0.07   -0.00 -0.00  0.04    0.00  0.00 -0.05   
      6   C               -0.00  0.00  0.07    0.00  0.00 -0.04   -0.00 -0.00  0.05   
      7   H                0.00 -0.00 -0.00    0.00 -0.00  0.57   -0.00  0.00  0.40   
      8   H               -0.00 -0.00  0.49    0.00  0.00  0.29    0.00  0.00 -0.41   
      9   H               -0.00  0.00  0.49   -0.00  0.00 -0.29    0.00 -0.00  0.41   
     10   H                0.00  0.00  0.00   -0.00 -0.00 -0.57    0.00  0.00 -0.40   
     11   H               -0.00 -0.00 -0.49    0.00 -0.00 -0.29    0.00  0.00  0.41   
     12   H               -0.00  0.00 -0.49   -0.00  0.00  0.29    0.00 -0.00 -0.41   

  Vibration                       16                  17                  18          
  Freq [cm^-1]                 976.6356            976.7400           1012.8619       
  Irrep                           Au                 B1u                  Ag          
  Reduced mass [u]              1.3685              1.3682              5.9836        
  Force const [mDyne/A]         0.7691              0.7690              3.6167        
  Turning point v=0 [a0]        0.3001              0.3002              0.1409        
  RMS dev v=0 [a0 u^1/2]        0.2483              0.2483              0.2438        
  IR activ [km/mol]             0.0000              0.0000              0.0000        
  Char temp [K]               1405.1612           1405.3114           1457.2828       
  ----------------------------------------------------------------------------------
      1   C               -0.00  0.00  0.00   -0.00  0.00 -0.10    0.27 -0.00 -0.00   
      2   C                0.00 -0.00 -0.09    0.00  0.00  0.05    0.14 -0.24 -0.00   
      3   C                0.00  0.00  0.09   -0.00 -0.00  0.05   -0.14 -0.24 -0.00   
      4   C               -0.00  0.00  0.00   -0.00  0.00 -0.10   -0.27 -0.00 -0.00   
      5   C                0.00 -0.00 -0.09    0.00 -0.00  0.05   -0.14  0.24  0.00   
      6   C                0.00  0.00  0.09   -0.00 -0.00  0.05    0.14  0.24  0.00   
      7   H               -0.00  0.00 -0.00   -0.00  0.00  0.57    0.30 -0.00  0.00   
      8   H               -0.00 -0.00  0.49    0.00  0.00 -0.28    0.15 -0.26 -0.00   
      9   H               -0.00  0.00 -0.49   -0.00  0.00 -0.28   -0.15 -0.26 -0.00   
     10   H               -0.00 -0.00 -0.00   -0.00 -0.00  0.57   -0.30 -0.00  0.00   
     11   H               -0.00 -0.00  0.49    0.00  0.00 -0.28   -0.15  0.26 -0.00   
     12   H               -0.00  0.00 -0.49   -0.00 -0.00 -0.28    0.15  0.26 -0.00   

  Vibration                       19                  20                  21          
  Freq [cm^-1]                1022.0169           1061.8892           1062.1605       
  Irrep                          B3u                 B3u                 B2u          
  Reduced mass [u]              6.5445              1.6943              1.6942        
  Force const [mDyne/A]         4.0276              1.1257              1.1262        
  Turning point v=0 [a0]        0.1342              0.2587              0.2587        
  RMS dev v=0 [a0 u^1/2]        0.2427              0.2381              0.2381        
  IR activ [km/mol]             0.0000              4.0438              4.0488        
  Char temp [K]               1470.4548           1527.8221           1528.2125       
  ----------------------------------------------------------------------------------
      1   C                0.29 -0.00 -0.00    0.12 -0.00 -0.00    0.00  0.08  0.00   
      2   C               -0.14  0.25 -0.00   -0.03 -0.09  0.00    0.09 -0.07 -0.00   
      3   C               -0.14 -0.25  0.00   -0.03  0.09 -0.00   -0.09 -0.07 -0.00   
      4   C                0.29 -0.00 -0.00    0.12 -0.00 -0.00    0.00  0.08  0.00   
      5   C               -0.14  0.25 -0.00   -0.03 -0.09  0.00    0.09 -0.07 -0.00   
      6   C               -0.14 -0.25  0.00   -0.03  0.09 -0.00   -0.09 -0.07 -0.00   
      7   H                0.29 -0.00 -0.00    0.13 -0.00  0.00    0.00  0.54 -0.00   
      8   H               -0.14  0.25  0.00   -0.38 -0.29 -0.00    0.29  0.04  0.00   
      9   H               -0.14 -0.25 -0.00   -0.38  0.29  0.00   -0.29  0.04  0.00   
     10   H                0.29 -0.00  0.00    0.13 -0.00  0.00    0.00  0.54 -0.00   
     11   H               -0.14  0.25  0.00   -0.38 -0.29 -0.00    0.29  0.04 -0.00   
     12   H               -0.14 -0.25 -0.00   -0.38  0.29  0.00   -0.29  0.04  0.00   

  Vibration                       22                  23                  24          
  Freq [cm^-1]                1168.7969           1196.3878           1196.4001       
  Irrep                          B2u                 B1g                  Ag          
  Reduced mass [u]              1.0327              1.1291              1.1290        
  Force const [mDyne/A]         0.8312              0.9522              0.9522        
  Turning point v=0 [a0]        0.3158              0.2985              0.2986        
  RMS dev v=0 [a0 u^1/2]        0.2269              0.2243              0.2243        
  IR activ [km/mol]             0.0000              0.0000              0.0000        
  Char temp [K]               1681.6385           1721.3356           1721.3534       
  ----------------------------------------------------------------------------------
      1   C               -0.00  0.02 -0.00   -0.00  0.06  0.00    0.01  0.00 -0.00   
      2   C               -0.02 -0.01 -0.00   -0.03 -0.01 -0.00    0.04  0.03  0.00   
      3   C                0.02 -0.01  0.00   -0.03  0.01 -0.00   -0.04  0.03 -0.00   
      4   C               -0.00  0.02  0.00    0.00 -0.06  0.00   -0.01 -0.00  0.00   
      5   C               -0.02 -0.01  0.00    0.03  0.01 -0.00   -0.04 -0.03  0.00   
      6   C                0.02 -0.01  0.00    0.03 -0.01 -0.00    0.04 -0.03  0.00   
      7   H               -0.00  0.41  0.00   -0.00  0.57 -0.00    0.00  0.00  0.00   
      8   H               -0.35 -0.20 -0.00   -0.25 -0.14  0.00    0.43  0.25 -0.00   
      9   H                0.35 -0.20 -0.00   -0.25  0.14  0.00   -0.43  0.25  0.00   
     10   H               -0.00  0.41  0.00    0.00 -0.57 -0.00   -0.00 -0.00  0.00   
     11   H               -0.35 -0.20 -0.00    0.25  0.14 -0.00   -0.43 -0.25 -0.00   
     12   H                0.35 -0.20 -0.00    0.25 -0.14  0.00    0.43 -0.25 -0.00   

  Vibration                       25                  26                  27          
  Freq [cm^-1]                1369.7158           1457.3063           1507.0592       
  Irrep                          B1g                 B2u                 B2u          
  Reduced mass [u]              1.2473              9.3271              2.0211        
  Force const [mDyne/A]         1.3787             11.6708              2.7045        
  Turning point v=0 [a0]        0.2655              0.0941              0.1988        
  RMS dev v=0 [a0 u^1/2]        0.2096              0.2032              0.1999        
  IR activ [km/mol]             0.0000              0.0000              9.1286        
  Char temp [K]               1970.7160           2096.7392           2168.3227       
  ----------------------------------------------------------------------------------
      1   C               -0.00 -0.06 -0.00    0.00  0.36  0.00   -0.00 -0.15 -0.00   
      2   C               -0.05 -0.03  0.00   -0.31 -0.18 -0.00   -0.10  0.03  0.00   
      3   C               -0.05  0.03  0.00    0.31 -0.18 -0.00    0.10  0.03  0.00   
      4   C                0.00  0.06 -0.00   -0.00  0.36 -0.00    0.00 -0.15 -0.00   
      5   C                0.05  0.03  0.00   -0.31 -0.18  0.00   -0.10  0.03  0.00   
      6   C                0.05 -0.03  0.00    0.31 -0.18 -0.00    0.10  0.03  0.00   
      7   H               -0.00  0.40  0.00    0.00 -0.20  0.00   -0.00  0.54 -0.00   
      8   H                0.35  0.20 -0.00    0.17  0.10  0.00    0.18  0.22 -0.00   
      9   H                0.35 -0.20 -0.00   -0.17  0.10 -0.00   -0.18  0.22  0.00   
     10   H                0.00 -0.40  0.00   -0.00 -0.20  0.00    0.00  0.54 -0.00   
     11   H               -0.35 -0.20 -0.00    0.17  0.10 -0.00    0.18  0.22  0.00   
     12   H               -0.35  0.20  0.00   -0.17  0.10  0.00   -0.18  0.22 -0.00   

  Vibration                       28                  29                  30          
  Freq [cm^-1]                1507.3560           1637.9456           1638.3040       
  Irrep                          B3u                  Ag                 B1g          
  Reduced mass [u]              2.0214              5.5706              5.5697        
  Force const [mDyne/A]         2.7060              8.8054              8.8078        
  Turning point v=0 [a0]        0.1988              0.1149              0.1149        
  RMS dev v=0 [a0 u^1/2]        0.1998              0.1917              0.1917        
  IR activ [km/mol]             9.1360              0.0000              0.0000        
  Char temp [K]               2168.7497           2356.6391           2357.1547       
  ----------------------------------------------------------------------------------
      1   C                0.09  0.00  0.00   -0.15  0.00 -0.00    0.00  0.34 -0.00   
      2   C               -0.09 -0.10 -0.00    0.29  0.08  0.00   -0.08 -0.20  0.00   
      3   C               -0.09  0.10  0.00   -0.29  0.08  0.00   -0.08  0.20  0.00   
      4   C                0.09  0.00  0.00    0.15 -0.00 -0.00   -0.00 -0.34 -0.00   
      5   C               -0.09 -0.10 -0.00   -0.29 -0.08  0.00    0.08  0.20  0.00   
      6   C               -0.09  0.10 -0.00    0.29 -0.08  0.00    0.08 -0.20  0.00   
      7   H                0.12 -0.00 -0.00   -0.18 -0.00 -0.00    0.00 -0.41 -0.00   
      8   H                0.43  0.18  0.00   -0.26 -0.25 -0.00    0.25 -0.03  0.00   
      9   H                0.43 -0.18  0.00    0.26 -0.25  0.00    0.25  0.03  0.00   
     10   H                0.12 -0.00 -0.00    0.18  0.00 -0.00   -0.00  0.41 -0.00   
     11   H                0.43  0.18  0.00    0.26  0.25  0.00   -0.25  0.03  0.00   
     12   H                0.43 -0.18  0.00   -0.26  0.25 -0.00   -0.25 -0.03  0.00   

  Vibration                       31                  32                  33          
  Freq [cm^-1]                3199.0624           3209.9978           3210.0184       
  Irrep                          B3u                  Ag                 B1g          
  Reduced mass [u]              1.0837              1.0882              1.0881        
  Force const [mDyne/A]         6.5344              6.6062              6.6058        
  Turning point v=0 [a0]        0.1864              0.1857              0.1857        
  RMS dev v=0 [a0 u^1/2]        0.1372              0.1369              0.1369        
  IR activ [km/mol]             0.0034              0.0000              0.0000        
  Char temp [K]               4602.7386           4618.4721           4618.5017       
  ----------------------------------------------------------------------------------
      1   C               -0.03 -0.00  0.00   -0.05  0.00 -0.00   -0.00  0.00  0.00   
      2   C                0.02 -0.03  0.00    0.01 -0.02 -0.00    0.02 -0.04 -0.00   
      3   C                0.02  0.03 -0.00   -0.01 -0.02  0.00    0.02  0.04 -0.00   
      4   C               -0.03  0.00  0.00    0.05 -0.00 -0.00   -0.00 -0.00  0.00   
      5   C                0.02 -0.03  0.00   -0.01  0.02  0.00   -0.02  0.04 -0.00   
      6   C                0.02  0.03 -0.00    0.01  0.02  0.00   -0.02 -0.04 -0.00   
      7   H                0.41  0.00  0.00    0.57 -0.00 -0.00   -0.00 -0.00  0.00   
      8   H               -0.20  0.35 -0.00   -0.15  0.25  0.00   -0.25  0.43 -0.00   
      9   H               -0.20 -0.35  0.00    0.15  0.25 -0.00   -0.25 -0.43 -0.00   
     10   H                0.41  0.00  0.00   -0.57  0.00 -0.00    0.00  0.00  0.00   
     11   H               -0.20  0.35 -0.00    0.15 -0.25  0.00    0.25 -0.43 -0.00   
     12   H               -0.20 -0.35 -0.00   -0.15 -0.25 -0.00    0.25  0.43 -0.00   

  Vibration                       34                  35                  36          
  Freq [cm^-1]                3225.1113           3225.4615           3236.2746       
  Irrep                          B3u                 B2u                  Ag          
  Reduced mass [u]              1.0959              1.0961              1.1008        
  Force const [mDyne/A]         6.7162              6.7185              6.7927        
  Turning point v=0 [a0]        0.1846              0.1845              0.1838        
  RMS dev v=0 [a0 u^1/2]        0.1366              0.1366              0.1364        
  IR activ [km/mol]            42.7276             42.7334              0.0000        
  Char temp [K]               4640.2172           4640.7209           4656.2786       
  ----------------------------------------------------------------------------------
      1   C               -0.05  0.00  0.00    0.00  0.00 -0.00   -0.04 -0.00  0.00   
      2   C               -0.01  0.02  0.00    0.02 -0.04  0.00   -0.02  0.03 -0.00   
      3   C               -0.01 -0.02 -0.00   -0.02 -0.04 -0.00    0.02  0.03  0.00   
      4   C               -0.05  0.00 -0.00    0.00  0.00 -0.00    0.04 -0.00 -0.00   
      5   C               -0.01  0.02  0.00    0.02 -0.04 -0.00    0.02 -0.03  0.00   
      6   C               -0.01 -0.02 -0.00   -0.02 -0.04  0.00   -0.02 -0.03  0.00   
      7   H                0.57 -0.00 -0.00    0.00 -0.00  0.00    0.41  0.00 -0.00   
      8   H                0.14 -0.25 -0.00   -0.25  0.43  0.00    0.20 -0.35  0.00   
      9   H                0.14  0.25  0.00    0.25  0.43 -0.00   -0.20 -0.35 -0.00   
     10   H                0.57  0.00 -0.00   -0.00 -0.00 -0.00   -0.41  0.00 -0.00   
     11   H                0.14 -0.25  0.00   -0.25  0.43 -0.00   -0.20  0.35  0.00   
     12   H                0.14  0.25 -0.00    0.25  0.43  0.00    0.20  0.35  0.00   

  ==> Thermochemistry Components <==

  Entropy, S
    Electronic S            0.000 [cal/(mol K)]        0.000 [J/(mol K)]       0.00000000 [mEh/K] (multiplicity = 1)
    Translational S        38.979 [cal/(mol K)]      163.089 [J/(mol K)]       0.06211726 [mEh/K] (mol. weight = 78.0470 [u], P = 101325.00 [Pa])
    Rotational S           22.885 [cal/(mol K)]       95.750 [J/(mol K)]       0.03646932 [mEh/K] (symmetry no. = 4)
    Vibrational S           4.589 [cal/(mol K)]       19.202 [J/(mol K)]       0.00731364 [mEh/K]
  Total S                  66.453 [cal/(mol K)]      278.041 [J/(mol K)]       0.10590022 [mEh/K]
  Correction S              0.000 [cal/(mol K)]        0.000 [J/(mol K)]       0.00000000 [mEh/K]

  Constant volume heat capacity, Cv
    Electronic Cv           0.000 [cal/(mol K)]        0.000 [J/(mol K)]       0.00000000 [mEh/K]
    Translational Cv        2.981 [cal/(mol K)]       12.472 [J/(mol K)]       0.00475022 [mEh/K]
    Rotational Cv           2.981 [cal/(mol K)]       12.472 [J/(mol K)]       0.00475022 [mEh/K]
    Vibrational Cv         11.439 [cal/(mol K)]       47.859 [J/(mol K)]       0.01822865 [mEh/K]
  Total Cv                 17.400 [cal/(mol K)]       72.803 [J/(mol K)]       0.02772908 [mEh/K]
  Correction Cv             0.000 [cal/(mol K)]        0.000 [J/(mol K)]       0.00000000 [mEh/K]

  Constant pressure heat capacity, Cp
    Electronic Cp           0.000 [cal/(mol K)]        0.000 [J/(mol K)]       0.00000000 [mEh/K]
    Translational Cp        4.968 [cal/(mol K)]       20.786 [J/(mol K)]       0.00791703 [mEh/K]
    Rotational Cp           2.981 [cal/(mol K)]       12.472 [J/(mol K)]       0.00475022 [mEh/K]
    Vibrational Cp         11.439 [cal/(mol K)]       47.859 [J/(mol K)]       0.01822865 [mEh/K]
  Total Cp                 19.387 [cal/(mol K)]       81.117 [J/(mol K)]       0.03089589 [mEh/K]
  Correction Cp             0.000 [cal/(mol K)]        0.000 [J/(mol K)]       0.00000000 [mEh/K]

  ==> Thermochemistry Energy Analysis <==

  Raw electronic energy, E0
  Total E0, Electronic energy at well bottom at 0 [K]                 -231.80981990 [Eh]

  Zero-point energy, ZPE_vib = Sum_i nu_i / 2
    Electronic ZPE          0.000 [kcal/mol]        0.000 [kJ/mol]       0.00000000 [Eh]
    Translational ZPE       0.000 [kcal/mol]        0.000 [kJ/mol]       0.00000000 [Eh]
    Rotational ZPE          0.000 [kcal/mol]        0.000 [kJ/mol]       0.00000000 [Eh]
    Vibrational ZPE        63.157 [kcal/mol]      264.250 [kJ/mol]       0.10064757 [Eh]       22089.588 [cm^-1]
  Correction ZPE           63.157 [kcal/mol]      264.250 [kJ/mol]       0.10064757 [Eh]       22089.588 [cm^-1]
  Total ZPE, Electronic energy at 0 [K]                               -231.70917234 [Eh]

  Thermal Energy, E (includes ZPE)
    Electronic E            0.000 [kcal/mol]        0.000 [kJ/mol]       0.00000000 [Eh]
    Translational E         0.889 [kcal/mol]        3.718 [kJ/mol]       0.00141628 [Eh]
    Rotational E            0.889 [kcal/mol]        3.718 [kJ/mol]       0.00141628 [Eh]
    Vibrational E          64.174 [kcal/mol]      268.504 [kJ/mol]       0.10226762 [Eh]
  Correction E             65.951 [kcal/mol]      275.940 [kJ/mol]       0.10510017 [Eh]
  Total E, Electronic energy at  298.15 [K]                           -231.70471973 [Eh]

  Enthalpy, H_trans = E_trans + k_B * T
    Electronic H            0.000 [kcal/mol]        0.000 [kJ/mol]       0.00000000 [Eh]
    Translational H         1.481 [kcal/mol]        6.197 [kJ/mol]       0.00236046 [Eh]
    Rotational H            0.889 [kcal/mol]        3.718 [kJ/mol]       0.00141628 [Eh]
    Vibrational H          64.174 [kcal/mol]      268.504 [kJ/mol]       0.10226762 [Eh]
  Correction H             66.544 [kcal/mol]      278.419 [kJ/mol]       0.10604436 [Eh]
  Total H, Enthalpy at  298.15 [K]                                    -231.70377555 [Eh]

  Gibbs free energy, G = H - T * S
    Electronic G            0.000 [kcal/mol]        0.000 [kJ/mol]       0.00000000 [Eh]
    Translational G       -10.140 [kcal/mol]      -42.428 [kJ/mol]      -0.01615980 [Eh]
    Rotational G           -5.934 [kcal/mol]      -24.829 [kJ/mol]      -0.00945705 [Eh]
    Vibrational G          62.806 [kcal/mol]      262.779 [kJ/mol]       0.10008705 [Eh]
  Correction G             46.731 [kcal/mol]      195.521 [kJ/mol]       0.07447020 [Eh]
  Total G, Free enthalpy at  298.15 [K]                               -231.73534970 [Eh]
    Molecular point group: d2h
    Full point group: D2h

    Geometry (in Angstrom), charge = 0, multiplicity = 1:

       Center              X                  Y                   Z       
    ------------   -----------------  -----------------  -----------------
         C            1.391845319213     0.000000000000     0.000000000000
         C            0.695920652319    -1.205374872649     0.000000000000
         C           -0.695920652319    -1.205374872649     0.000000000000
         C           -1.391845319213    -0.000000000000     0.000000000000
         C           -0.695920652319     1.205374872649     0.000000000000
         C            0.695920652319     1.205374872649     0.000000000000
         H            2.473081087481     0.000000000000     0.000000000000
         H            1.236539138535    -2.141749428493     0.000000000000
         H           -1.236539138535    -2.141749428493     0.000000000000
         H           -2.473081087481    -0.000000000000     0.000000000000
         H           -1.236539138535     2.141749428493     0.000000000000
         H            1.236539138535     2.141749428493     0.000000000000


    Psi4 stopped on: Thursday, 22 February 2024 11:40AM
    Psi4 wall time for execution: 1:25:47.05

*** Psi4 exiting successfully. Buy a developer a beer!
