
    -----------------------------------------------------------------------
          Psi4: An Open-Source Ab Initio Electronic Structure Package
                               Psi4 1.4.1 release

                         Git: Rev {HEAD} cd00f19 


    D. G. A. Smith, L. A. Burns, A. C. Simmonett, R. M. Parrish,
    M. C. Schieber, R. Galvelis, P. Kraus, H. Kruse, R. Di Remigio,
    A. Alenaizan, A. M. James, S. Lehtola, J. P. Misiewicz, M. Scheurer,
    R. A. Shaw, J. B. Schriber, Y. Xie, Z. L. Glick, D. A. Sirianni,
    J. S. O'Brien, J. M. Waldrop, A. Kumar, E. G. Hohenstein,
    B. P. Pritchard, B. R. Brooks, H. F. Schaefer III, A. Yu. Sokolov,
    K. Patkowski, A. E. DePrince III, U. Bozkaya, R. A. King,
    F. A. Evangelista, J. M. Turney, T. D. Crawford, C. D. Sherrill,
    J. Chem. Phys. 152(18) 184108 (2020). https://doi.org/10.1063/5.0006002

                            Additional Code Authors
    E. T. Seidl, C. L. Janssen, E. F. Valeev, M. L. Leininger,
    J. F. Gonthier, R. M. Richard, H. R. McAlexander, M. Saitow, X. Wang,
    P. Verma, and M. H. Lechner

             Previous Authors, Complete List of Code Contributors,
                       and Citations for Specific Modules
    https://github.com/psi4/psi4/blob/master/codemeta.json
    https://github.com/psi4/psi4/graphs/contributors
    http://psicode.org/psi4manual/master/introduction.html#citing-psifour

    -----------------------------------------------------------------------


    Psi4 started on: Thursday, 17 August 2023 04:41PM

    Process ID: 37860
    Host:       earth
    PSIDATADIR: /media/storage-1/miniconda3/envs/psi4/share/psi4
    Memory:     500.0 MiB
    Threads:    1
    
  ==> Input File <==

--------------------------------------------------------------------------
memory 4.0 Gb

molecule ethanol_conf_1 {
0 1
    C            0.027511445592    -0.552195649364     0.140159667779
    H           -0.019283026807    -1.394122265997    -0.548205508647
    H            0.161192928219    -0.956094723589     1.142093566505
    O            1.091406588740     0.301553023869    -0.194676593518
    H            1.907433912773    -0.176770711405    -0.157845167409
    C           -1.257165077737     0.248856398247     0.069740328373
    H           -1.399880312731     0.643854951405    -0.929825183713
    H           -1.219227157056     1.082314670892     0.762149637915
    H           -2.110375783305    -0.373238745455     0.322048172823
}
set globals {
  reference rhf
  g_convergence gau_tight
  basis 6-31G(d)
}
energy, wavefunction = frequency('scf', dertype=1, return_wfn=True)
oeprop(wavefunction, 'MULLIKEN_CHARGES', title='molecule')
oeprop(wavefunction, 'LOWDIN_CHARGES', title='molecule')
--------------------------------------------------------------------------

  Memory set to   3.725 GiB by Python driver.

Scratch directory: /tmp/
gradient() will perform analytic gradient computation.

*** tstart() called on earth
*** at Thu Aug 17 16:41:28 2023

   => Loading Basis Set <=

    Name: 6-31G(D)
    Role: ORBITAL
    Keyword: BASIS
    atoms 1, 6        entry C          line   111 file /media/storage-1/miniconda3/envs/psi4/share/psi4/basis/6-31g_d_.gbs 
    atoms 2-3, 5, 7-9 entry H          line    44 file /media/storage-1/miniconda3/envs/psi4/share/psi4/basis/6-31g_d_.gbs 
    atoms 4           entry O          line   145 file /media/storage-1/miniconda3/envs/psi4/share/psi4/basis/6-31g_d_.gbs 


         ---------------------------------------------------------
                                   SCF
               by Justin Turney, Rob Parrish, Andy Simmonett
                          and Daniel G. A. Smith
                              RHF Reference
                        1 Threads,   3814 MiB Core
         ---------------------------------------------------------

  ==> Geometry <==

    Molecular point group: c1
    Full point group: C1

    Geometry (in Angstrom), charge = 0, multiplicity = 1:

       Center              X                  Y                   Z               Mass       
    ------------   -----------------  -----------------  -----------------  -----------------
         C            0.027511445592    -0.552195649364     0.140159667779    12.000000000000
         H           -0.019283026807    -1.394122265997    -0.548205508647     1.007825032230
         H            0.161192928219    -0.956094723589     1.142093566505     1.007825032230
         O            1.091406588740     0.301553023869    -0.194676593518    15.994914619570
         H            1.907433912773    -0.176770711405    -0.157845167409     1.007825032230
         C           -1.257165077737     0.248856398247     0.069740328373    12.000000000000
         H           -1.399880312731     0.643854951405    -0.929825183713     1.007825032230
         H           -1.219227157056     1.082314670892     0.762149637915     1.007825032230
         H           -2.110375783305    -0.373238745455     0.322048172823     1.007825032230

  Running in c1 symmetry.

  Rotational constants: A =      1.19533  B =      0.31628  C =      0.27552 [cm^-1]
  Rotational constants: A =  35835.02429  B =   9481.91523  C =   8259.89156 [MHz]
  Nuclear repulsion =   82.418623071592407

  Charge       = 0
  Multiplicity = 1
  Electrons    = 26
  Nalpha       = 13
  Nbeta        = 13

  ==> Algorithm <==

  SCF Algorithm Type is DF.
  DIIS enabled.
  MOM disabled.
  Fractional occupation disabled.
  Guess Type is SAD.
  Energy threshold   = 1.00e-08
  Density threshold  = 1.00e-08
  Integral threshold = 1.00e-12

  ==> Primary Basis <==

  Basis Set: 6-31G(D)
    Blend: 6-31G(D)
    Number of shells: 30
    Number of basis functions: 57
    Number of Cartesian functions: 57
    Spherical Harmonics?: false
    Max angular momentum: 2

   => Loading Basis Set <=

    Name: (6-31G(D) AUX)
    Role: JKFIT
    Keyword: DF_BASIS_SCF
    atoms 1, 6        entry C          line   121 file /media/storage-1/miniconda3/envs/psi4/share/psi4/basis/cc-pvdz-jkfit.gbs 
    atoms 2-3, 5, 7-9 entry H          line    51 file /media/storage-1/miniconda3/envs/psi4/share/psi4/basis/cc-pvdz-jkfit.gbs 
    atoms 4           entry O          line   221 file /media/storage-1/miniconda3/envs/psi4/share/psi4/basis/cc-pvdz-jkfit.gbs 

  ==> Integral Setup <==

  DFHelper Memory: AOs need 0.011 GiB; user supplied 2.794 GiB. Using in-core AOs.

  ==> MemDFJK: Density-Fitted J/K Matrices <==

    J tasked:                   Yes
    K tasked:                   Yes
    wK tasked:                   No
    OpenMP threads:               1
    Memory [MiB]:              2861
    Algorithm:                 Core
    Schwarz Cutoff:           1E-12
    Mask sparsity (%):       0.0616
    Fitting Condition:        1E-10

   => Auxiliary Basis Set <=

  Basis Set: (6-31G(D) AUX)
    Blend: CC-PVDZ-JKFIT
    Number of shells: 126
    Number of basis functions: 393
    Number of Cartesian functions: 393
    Spherical Harmonics?: false
    Max angular momentum: 3

  Minimum eigenvalue in the overlap matrix is 5.7720394038E-03.
  Reciprocal condition number of the overlap matrix is 8.6197550987E-04.
    Using symmetric orthogonalization.

  ==> Pre-Iterations <==

  SCF Guess: Superposition of Atomic Densities via on-the-fly atomic UHF (no occupation information).

   -------------------------
    Irrep   Nso     Nmo    
   -------------------------
     A         57      57 
   -------------------------
    Total      57      57
   -------------------------

  ==> Iterations <==

                           Total Energy        Delta E     RMS |[F,P]|

   @DF-RHF iter SAD:  -153.38717064712733   -1.53387e+02   0.00000e+00 
   @DF-RHF iter   1:  -153.98272683719284   -5.95556e-01   7.35140e-03 DIIS
   @DF-RHF iter   2:  -154.05768223128132   -7.49554e-02   3.75218e-03 DIIS
   @DF-RHF iter   3:  -154.07466926535977   -1.69870e-02   6.26462e-04 DIIS
   @DF-RHF iter   4:  -154.07560282538481   -9.33560e-04   1.87172e-04 DIIS
   @DF-RHF iter   5:  -154.07566766090437   -6.48355e-05   3.79854e-05 DIIS
   @DF-RHF iter   6:  -154.07567138094450   -3.72004e-06   6.70629e-06 DIIS
   @DF-RHF iter   7:  -154.07567153761767   -1.56673e-07   1.60333e-06 DIIS
   @DF-RHF iter   8:  -154.07567154579385   -8.17619e-09   5.28541e-07 DIIS
   @DF-RHF iter   9:  -154.07567154661552   -8.21672e-10   1.14198e-07 DIIS
   @DF-RHF iter  10:  -154.07567154667052   -5.49960e-11   2.33906e-08 DIIS
   @DF-RHF iter  11:  -154.07567154667265   -2.13163e-12   4.52717e-09 DIIS
  Energy and wave function converged.


  ==> Post-Iterations <==

    Orbital Energies [Eh]
    ---------------------

    Doubly Occupied:                                                      

       1A    -20.552759     2A    -11.270537     3A    -11.208660  
       4A     -1.359728     5A     -1.011577     6A     -0.836079  
       7A     -0.702319     8A     -0.645369     9A     -0.568850  
      10A     -0.533877    11A     -0.524765    12A     -0.482965  
      13A     -0.435256  

    Virtual:                                                              

      14A      0.226980    15A      0.265764    16A      0.312180  
      17A      0.312787    18A      0.329422    19A      0.352340  
      20A      0.403469    21A      0.414206    22A      0.724951  
      23A      0.756561    24A      0.791999    25A      0.821371  
      26A      0.906456    27A      0.936934    28A      1.089670  
      29A      1.127120    30A      1.166365    31A      1.181123  
      32A      1.193882    33A      1.202813    34A      1.253768  
      35A      1.293525    36A      1.295638    37A      1.430364  
      38A      1.646191    39A      1.717642    40A      1.765760  
      41A      1.921385    42A      2.034871    43A      2.089712  
      44A      2.236336    45A      2.272757    46A      2.389428  
      47A      2.514485    48A      2.578799    49A      2.683263  
      50A      2.727152    51A      2.764963    52A      2.872176  
      53A      2.980629    54A      3.214879    55A      4.158536  
      56A      4.607624    57A      4.829399  

    Final Occupation by Irrep:
              A 
    DOCC [    13 ]

  @DF-RHF Final Energy:  -154.07567154667265

   => Energetics <=

    Nuclear Repulsion Energy =             82.4186230715924069
    One-Electron Energy =                -372.7231037602247170
    Two-Electron Energy =                 136.2288091419596867
    Total Energy =                       -154.0756715466726519

Computation Completed


Properties will be evaluated at   0.000000,   0.000000,   0.000000 [a0]

Properties computed using the SCF density matrix

  Nuclear Dipole Moment: [e a0]
     X:    -2.5073      Y:    -1.0992      Z:     0.5526

  Electronic Dipole Moment: [e a0]
     X:     2.5837      Y:     0.4393      Z:    -0.3897

  Dipole Moment: [e a0]
     X:     0.0764      Y:    -0.6599      Z:     0.1628     Total:     0.6840

  Dipole Moment: [D]
     X:     0.1942      Y:    -1.6773      Z:     0.4139     Total:     1.7385


*** tstop() called on earth at Thu Aug 17 16:41:29 2023
Module time:
	user time   =       0.81 seconds =       0.01 minutes
	system time =       0.02 seconds =       0.00 minutes
	total time  =          1 seconds =       0.02 minutes
Total time:
	user time   =       0.81 seconds =       0.01 minutes
	system time =       0.02 seconds =       0.00 minutes
	total time  =          1 seconds =       0.02 minutes

*** tstart() called on earth
*** at Thu Aug 17 16:41:29 2023


         ------------------------------------------------------------
                                   SCF GRAD                          
                          Rob Parrish, Justin Turney,                
                       Andy Simmonett, and Alex Sokolov              
         ------------------------------------------------------------

  ==> Geometry <==

    Molecular point group: c1
    Full point group: C1

    Geometry (in Angstrom), charge = 0, multiplicity = 1:

       Center              X                  Y                   Z               Mass       
    ------------   -----------------  -----------------  -----------------  -----------------
         C            0.027511445592    -0.552195649364     0.140159667779    12.000000000000
         H           -0.019283026807    -1.394122265997    -0.548205508647     1.007825032230
         H            0.161192928219    -0.956094723589     1.142093566505     1.007825032230
         O            1.091406588740     0.301553023869    -0.194676593518    15.994914619570
         H            1.907433912773    -0.176770711405    -0.157845167409     1.007825032230
         C           -1.257165077737     0.248856398247     0.069740328373    12.000000000000
         H           -1.399880312731     0.643854951405    -0.929825183713     1.007825032230
         H           -1.219227157056     1.082314670892     0.762149637915     1.007825032230
         H           -2.110375783305    -0.373238745455     0.322048172823     1.007825032230

  Nuclear repulsion =   82.418623071592407

  ==> Basis Set <==

  Basis Set: 6-31G(D)
    Blend: 6-31G(D)
    Number of shells: 30
    Number of basis functions: 57
    Number of Cartesian functions: 57
    Spherical Harmonics?: false
    Max angular momentum: 2

  ==> DFJKGrad: Density-Fitted SCF Gradients <==

    Gradient:                    1
    J tasked:                  Yes
    K tasked:                  Yes
    wK tasked:                  No
    OpenMP threads:              1
    Integrals threads:           1
    Memory [MiB]:             2861
    Schwarz Cutoff:          1E-12
    Fitting Condition:       1E-10

   => Auxiliary Basis Set <=

  Basis Set: (6-31G(D) AUX)
    Blend: CC-PVDZ-JKFIT
    Number of shells: 126
    Number of basis functions: 393
    Number of Cartesian functions: 393
    Spherical Harmonics?: false
    Max angular momentum: 3


  -Total Gradient:
     Atom            X                  Y                   Z
    ------   -----------------  -----------------  -----------------
       1        0.000005273961     0.000013240128    -0.000003949693
       2       -0.000005305005    -0.000003089775     0.000001346176
       3       -0.000005308351    -0.000003106148     0.000001372978
       4        0.000001974549    -0.000004221003     0.000000809626
       5        0.000004170599     0.000004403908    -0.000001548889
       6       -0.000003384577    -0.000008281688     0.000002558098
       7        0.000001379333    -0.000000567085    -0.000000301486
       8        0.000001439678    -0.000000432662     0.000000241457
       9       -0.000000240189     0.000002054325    -0.000000528266


*** tstop() called on earth at Thu Aug 17 16:41:29 2023
Module time:
	user time   =       0.37 seconds =       0.01 minutes
	system time =       0.02 seconds =       0.00 minutes
	total time  =          0 seconds =       0.00 minutes
Total time:
	user time   =       1.18 seconds =       0.02 minutes
	system time =       0.04 seconds =       0.00 minutes
	total time  =          1 seconds =       0.02 minutes

  Based on options and gradient (rms=4.11E-06), recommend projecting translations and projecting rotations.
hessian() will perform frequency computation by finite difference of analytic gradients.

         ----------------------------------------------------------
                                   FINDIF
                     R. A. King and Jonathon Misiewicz
         ---------------------------------------------------------

  Using finite-differences of gradients to determine vibrational frequencies and 
  normal modes. Resulting frequencies are only valid at stationary points.
    Generating geometries for use with 3-point formula.
    Displacement size will be 5.00e-03.
    Number of atoms is 9.
    Number of irreps is 1.
    Number of SALCs is 21.
    Translations projected? 1. Rotations projected? 1.
    Index of SALCs per irrep:
     1 :  0  1  2  3  4  5  6  7  8  9  10  11  12  13  14  15  16  17  18  19  20 
    Number of SALCs per irrep:
     Irrep 1: 21
    Number of geometries (including reference) is 43.
    Number of displacements per irrep:
      Irrep 1: 42

  //>>>>>>>>>>>>>>>>>>>>>>>>>>>>>>>>>>>//
  //    Loading displacement 1 of 43   //
  //<<<<<<<<<<<<<<<<<<<<<<<<<<<<<<<<<<<//

Scratch directory: /tmp/
gradient() will perform analytic gradient computation.

*** tstart() called on earth
*** at Thu Aug 17 16:41:30 2023

   => Loading Basis Set <=

    Name: 6-31G(D)
    Role: ORBITAL
    Keyword: BASIS
    atoms 1, 6        entry C          line   111 file /media/storage-1/miniconda3/envs/psi4/share/psi4/basis/6-31g_d_.gbs 
    atoms 2-3, 5, 7-9 entry H          line    44 file /media/storage-1/miniconda3/envs/psi4/share/psi4/basis/6-31g_d_.gbs 
    atoms 4           entry O          line   145 file /media/storage-1/miniconda3/envs/psi4/share/psi4/basis/6-31g_d_.gbs 


         ---------------------------------------------------------
                                   SCF
               by Justin Turney, Rob Parrish, Andy Simmonett
                          and Daniel G. A. Smith
                              RHF Reference
                        1 Threads,   3814 MiB Core
         ---------------------------------------------------------

  ==> Geometry <==

    Molecular point group: c1
    Full point group: C1

    Geometry (in Angstrom), charge = 0, multiplicity = 1:

       Center              X                  Y                   Z               Mass       
    ------------   -----------------  -----------------  -----------------  -----------------
         C            0.027511445592    -0.552195649364     0.140159667779    12.000000000000
         H           -0.019283026807    -1.394122265997    -0.548205508647     1.007825032230
         H            0.161192928219    -0.956094723589     1.142093566505     1.007825032230
         O            1.091406588740     0.301553023869    -0.194676593518    15.994914619570
         H            1.907433912773    -0.176770711405    -0.157845167409     1.007825032230
         C           -1.257165077737     0.248856398247     0.069740328373    12.000000000000
         H           -1.399880312731     0.643854951405    -0.929825183713     1.007825032230
         H           -1.219227157056     1.082314670892     0.762149637915     1.007825032230
         H           -2.110375783305    -0.373238745455     0.322048172823     1.007825032230

  Running in c1 symmetry.

  Rotational constants: A =      1.19533  B =      0.31628  C =      0.27552 [cm^-1]
  Rotational constants: A =  35835.02429  B =   9481.91523  C =   8259.89156 [MHz]
  Nuclear repulsion =   82.418623071592407

  Charge       = 0
  Multiplicity = 1
  Electrons    = 26
  Nalpha       = 13
  Nbeta        = 13

  ==> Algorithm <==

  SCF Algorithm Type is DF.
  DIIS enabled.
  MOM disabled.
  Fractional occupation disabled.
  Guess Type is SAD.
  Energy threshold   = 1.00e-08
  Density threshold  = 1.00e-08
  Integral threshold = 1.00e-12

  ==> Primary Basis <==

  Basis Set: 6-31G(D)
    Blend: 6-31G(D)
    Number of shells: 30
    Number of basis functions: 57
    Number of Cartesian functions: 57
    Spherical Harmonics?: false
    Max angular momentum: 2

   => Loading Basis Set <=

    Name: (6-31G(D) AUX)
    Role: JKFIT
    Keyword: DF_BASIS_SCF
    atoms 1, 6        entry C          line   121 file /media/storage-1/miniconda3/envs/psi4/share/psi4/basis/cc-pvdz-jkfit.gbs 
    atoms 2-3, 5, 7-9 entry H          line    51 file /media/storage-1/miniconda3/envs/psi4/share/psi4/basis/cc-pvdz-jkfit.gbs 
    atoms 4           entry O          line   221 file /media/storage-1/miniconda3/envs/psi4/share/psi4/basis/cc-pvdz-jkfit.gbs 

  ==> Integral Setup <==

  DFHelper Memory: AOs need 0.011 GiB; user supplied 2.794 GiB. Using in-core AOs.

  ==> MemDFJK: Density-Fitted J/K Matrices <==

    J tasked:                   Yes
    K tasked:                   Yes
    wK tasked:                   No
    OpenMP threads:               1
    Memory [MiB]:              2861
    Algorithm:                 Core
    Schwarz Cutoff:           1E-12
    Mask sparsity (%):       0.0616
    Fitting Condition:        1E-10

   => Auxiliary Basis Set <=

  Basis Set: (6-31G(D) AUX)
    Blend: CC-PVDZ-JKFIT
    Number of shells: 126
    Number of basis functions: 393
    Number of Cartesian functions: 393
    Spherical Harmonics?: false
    Max angular momentum: 3

  Minimum eigenvalue in the overlap matrix is 5.7720394038E-03.
  Reciprocal condition number of the overlap matrix is 8.6197550987E-04.
    Using symmetric orthogonalization.

  ==> Pre-Iterations <==

  SCF Guess: Superposition of Atomic Densities via on-the-fly atomic UHF (no occupation information).

   -------------------------
    Irrep   Nso     Nmo    
   -------------------------
     A         57      57 
   -------------------------
    Total      57      57
   -------------------------

  ==> Iterations <==

                           Total Energy        Delta E     RMS |[F,P]|

   @DF-RHF iter SAD:  -153.38717064704420   -1.53387e+02   0.00000e+00 
   @DF-RHF iter   1:  -153.98272683710567   -5.95556e-01   7.35140e-03 DIIS
   @DF-RHF iter   2:  -154.05768223119571   -7.49554e-02   3.75218e-03 DIIS
   @DF-RHF iter   3:  -154.07466926527476   -1.69870e-02   6.26462e-04 DIIS
   @DF-RHF iter   4:  -154.07560282530005   -9.33560e-04   1.87172e-04 DIIS
   @DF-RHF iter   5:  -154.07566766081928   -6.48355e-05   3.79854e-05 DIIS
   @DF-RHF iter   6:  -154.07567138086009   -3.72004e-06   6.70629e-06 DIIS
   @DF-RHF iter   7:  -154.07567153753268   -1.56673e-07   1.60333e-06 DIIS
   @DF-RHF iter   8:  -154.07567154570907   -8.17639e-09   5.28541e-07 DIIS
   @DF-RHF iter   9:  -154.07567154653097   -8.21899e-10   1.14198e-07 DIIS
   @DF-RHF iter  10:  -154.07567154658577   -5.47971e-11   2.33906e-08 DIIS
   @DF-RHF iter  11:  -154.07567154658807   -2.30216e-12   4.52717e-09 DIIS
  Energy and wave function converged.


  ==> Post-Iterations <==

    Orbital Energies [Eh]
    ---------------------

    Doubly Occupied:                                                      

       1A    -20.552759     2A    -11.270537     3A    -11.208660  
       4A     -1.359728     5A     -1.011577     6A     -0.836079  
       7A     -0.702319     8A     -0.645369     9A     -0.568850  
      10A     -0.533877    11A     -0.524765    12A     -0.482965  
      13A     -0.435256  

    Virtual:                                                              

      14A      0.226980    15A      0.265764    16A      0.312180  
      17A      0.312787    18A      0.329422    19A      0.352340  
      20A      0.403469    21A      0.414206    22A      0.724951  
      23A      0.756561    24A      0.791999    25A      0.821371  
      26A      0.906456    27A      0.936934    28A      1.089670  
      29A      1.127120    30A      1.166365    31A      1.181123  
      32A      1.193882    33A      1.202813    34A      1.253768  
      35A      1.293525    36A      1.295638    37A      1.430364  
      38A      1.646191    39A      1.717642    40A      1.765760  
      41A      1.921385    42A      2.034871    43A      2.089712  
      44A      2.236336    45A      2.272757    46A      2.389428  
      47A      2.514485    48A      2.578799    49A      2.683263  
      50A      2.727152    51A      2.764963    52A      2.872176  
      53A      2.980629    54A      3.214879    55A      4.158536  
      56A      4.607624    57A      4.829399  

    Final Occupation by Irrep:
              A 
    DOCC [    13 ]

  @DF-RHF Final Energy:  -154.07567154658807

   => Energetics <=

    Nuclear Repulsion Energy =             82.4186230715924069
    One-Electron Energy =                -372.7231037601800381
    Two-Electron Energy =                 136.2288091419995908
    Total Energy =                       -154.0756715465880688

Computation Completed


Properties will be evaluated at   0.000000,   0.000000,   0.000000 [a0]

Properties computed using the SCF density matrix

  Nuclear Dipole Moment: [e a0]
     X:    -2.5073      Y:    -1.0992      Z:     0.5526

  Electronic Dipole Moment: [e a0]
     X:     2.5837      Y:     0.4393      Z:    -0.3897

  Dipole Moment: [e a0]
     X:     0.0764      Y:    -0.6599      Z:     0.1628     Total:     0.6840

  Dipole Moment: [D]
     X:     0.1942      Y:    -1.6773      Z:     0.4139     Total:     1.7385


*** tstop() called on earth at Thu Aug 17 16:41:31 2023
Module time:
	user time   =       0.78 seconds =       0.01 minutes
	system time =       0.02 seconds =       0.00 minutes
	total time  =          1 seconds =       0.02 minutes
Total time:
	user time   =       2.37 seconds =       0.04 minutes
	system time =       0.09 seconds =       0.00 minutes
	total time  =          3 seconds =       0.05 minutes

*** tstart() called on earth
*** at Thu Aug 17 16:41:31 2023


         ------------------------------------------------------------
                                   SCF GRAD                          
                          Rob Parrish, Justin Turney,                
                       Andy Simmonett, and Alex Sokolov              
         ------------------------------------------------------------

  ==> Geometry <==

    Molecular point group: c1
    Full point group: C1

    Geometry (in Angstrom), charge = 0, multiplicity = 1:

       Center              X                  Y                   Z               Mass       
    ------------   -----------------  -----------------  -----------------  -----------------
         C            0.027511445592    -0.552195649364     0.140159667779    12.000000000000
         H           -0.019283026807    -1.394122265997    -0.548205508647     1.007825032230
         H            0.161192928219    -0.956094723589     1.142093566505     1.007825032230
         O            1.091406588740     0.301553023869    -0.194676593518    15.994914619570
         H            1.907433912773    -0.176770711405    -0.157845167409     1.007825032230
         C           -1.257165077737     0.248856398247     0.069740328373    12.000000000000
         H           -1.399880312731     0.643854951405    -0.929825183713     1.007825032230
         H           -1.219227157056     1.082314670892     0.762149637915     1.007825032230
         H           -2.110375783305    -0.373238745455     0.322048172823     1.007825032230

  Nuclear repulsion =   82.418623071592407

  ==> Basis Set <==

  Basis Set: 6-31G(D)
    Blend: 6-31G(D)
    Number of shells: 30
    Number of basis functions: 57
    Number of Cartesian functions: 57
    Spherical Harmonics?: false
    Max angular momentum: 2

  ==> DFJKGrad: Density-Fitted SCF Gradients <==

    Gradient:                    1
    J tasked:                  Yes
    K tasked:                  Yes
    wK tasked:                  No
    OpenMP threads:              1
    Integrals threads:           1
    Memory [MiB]:             2861
    Schwarz Cutoff:          1E-12
    Fitting Condition:       1E-10

   => Auxiliary Basis Set <=

  Basis Set: (6-31G(D) AUX)
    Blend: CC-PVDZ-JKFIT
    Number of shells: 126
    Number of basis functions: 393
    Number of Cartesian functions: 393
    Spherical Harmonics?: false
    Max angular momentum: 3


  -Total Gradient:
     Atom            X                  Y                   Z
    ------   -----------------  -----------------  -----------------
       1        0.000005274287     0.000013245106    -0.000003951906
       2       -0.000005304876    -0.000003090445     0.000001346212
       3       -0.000005308087    -0.000003106992     0.000001373993
       4        0.000001975126    -0.000004224384     0.000000810596
       5        0.000004169038     0.000004404222    -0.000001548761
       6       -0.000003387491    -0.000008280914     0.000002558282
       7        0.000001379889    -0.000000568084    -0.000000299541
       8        0.000001439897    -0.000000434589     0.000000240100
       9       -0.000000237786     0.000002056080    -0.000000528975


*** tstop() called on earth at Thu Aug 17 16:41:31 2023
Module time:
	user time   =       0.37 seconds =       0.01 minutes
	system time =       0.01 seconds =       0.00 minutes
	total time  =          0 seconds =       0.00 minutes
Total time:
	user time   =       2.74 seconds =       0.05 minutes
	system time =       0.10 seconds =       0.00 minutes
	total time  =          3 seconds =       0.05 minutes

  //>>>>>>>>>>>>>>>>>>>>>>>>>>>>>>>>>>>//
  //    Loading displacement 2 of 43   //
  //<<<<<<<<<<<<<<<<<<<<<<<<<<<<<<<<<<<//

Scratch directory: /tmp/
gradient() will perform analytic gradient computation.

*** tstart() called on earth
*** at Thu Aug 17 16:41:31 2023

   => Loading Basis Set <=

    Name: 6-31G(D)
    Role: ORBITAL
    Keyword: BASIS
    atoms 1, 6        entry C          line   111 file /media/storage-1/miniconda3/envs/psi4/share/psi4/basis/6-31g_d_.gbs 
    atoms 2-3, 5, 7-9 entry H          line    44 file /media/storage-1/miniconda3/envs/psi4/share/psi4/basis/6-31g_d_.gbs 
    atoms 4           entry O          line   145 file /media/storage-1/miniconda3/envs/psi4/share/psi4/basis/6-31g_d_.gbs 


         ---------------------------------------------------------
                                   SCF
               by Justin Turney, Rob Parrish, Andy Simmonett
                          and Daniel G. A. Smith
                              RHF Reference
                        1 Threads,   3814 MiB Core
         ---------------------------------------------------------

  ==> Geometry <==

    Molecular point group: c1
    Full point group: C1

    Geometry (in Angstrom), charge = 0, multiplicity = 1:

       Center              X                  Y                   Z               Mass       
    ------------   -----------------  -----------------  -----------------  -----------------
         C            0.026884633786    -0.552187795306     0.140178570671    12.000000000000
         H           -0.018908934992    -1.394143754659    -0.548155487542     1.007825032230
         H            0.161564996061    -0.956037307383     1.142123356145     1.007825032230
         O            1.091612611375     0.301660175180    -0.194715557864    15.994914619570
         H            1.907690880077    -0.176576965987    -0.157888264781     1.007825032230
         C           -1.256946702795     0.248727484974     0.069764031997    12.000000000000
         H           -1.399729095587     0.643675615966    -0.929811816822     1.007825032230
         H           -1.219077965674     1.082214318366     0.762142753402     1.007825032230
         H           -2.110085859747    -0.373447868206     0.322116061037     1.007825032230

  Running in c1 symmetry.

  Rotational constants: A =      1.19535  B =      0.31628  C =      0.27552 [cm^-1]
  Rotational constants: A =  35835.56090  B =   9481.98573  C =   8259.97359 [MHz]
  Nuclear repulsion =   82.416565093459511

  Charge       = 0
  Multiplicity = 1
  Electrons    = 26
  Nalpha       = 13
  Nbeta        = 13

  ==> Algorithm <==

  SCF Algorithm Type is DF.
  DIIS enabled.
  MOM disabled.
  Fractional occupation disabled.
  Guess Type is SAD.
  Energy threshold   = 1.00e-08
  Density threshold  = 1.00e-08
  Integral threshold = 1.00e-12

  ==> Primary Basis <==

  Basis Set: 6-31G(D)
    Blend: 6-31G(D)
    Number of shells: 30
    Number of basis functions: 57
    Number of Cartesian functions: 57
    Spherical Harmonics?: false
    Max angular momentum: 2

   => Loading Basis Set <=

    Name: (6-31G(D) AUX)
    Role: JKFIT
    Keyword: DF_BASIS_SCF
    atoms 1, 6        entry C          line   121 file /media/storage-1/miniconda3/envs/psi4/share/psi4/basis/cc-pvdz-jkfit.gbs 
    atoms 2-3, 5, 7-9 entry H          line    51 file /media/storage-1/miniconda3/envs/psi4/share/psi4/basis/cc-pvdz-jkfit.gbs 
    atoms 4           entry O          line   221 file /media/storage-1/miniconda3/envs/psi4/share/psi4/basis/cc-pvdz-jkfit.gbs 

  ==> Integral Setup <==

  DFHelper Memory: AOs need 0.011 GiB; user supplied 2.794 GiB. Using in-core AOs.

  ==> MemDFJK: Density-Fitted J/K Matrices <==

    J tasked:                   Yes
    K tasked:                   Yes
    wK tasked:                   No
    OpenMP threads:               1
    Memory [MiB]:              2861
    Algorithm:                 Core
    Schwarz Cutoff:           1E-12
    Mask sparsity (%):       0.0616
    Fitting Condition:        1E-10

   => Auxiliary Basis Set <=

  Basis Set: (6-31G(D) AUX)
    Blend: CC-PVDZ-JKFIT
    Number of shells: 126
    Number of basis functions: 393
    Number of Cartesian functions: 393
    Spherical Harmonics?: false
    Max angular momentum: 3

  Minimum eigenvalue in the overlap matrix is 5.7684251941E-03.
  Reciprocal condition number of the overlap matrix is 8.6137961776E-04.
    Using symmetric orthogonalization.

  ==> Pre-Iterations <==

  SCF Guess: Superposition of Atomic Densities via on-the-fly atomic UHF (no occupation information).

   -------------------------
    Irrep   Nso     Nmo    
   -------------------------
     A         57      57 
   -------------------------
    Total      57      57
   -------------------------

  ==> Iterations <==

                           Total Energy        Delta E     RMS |[F,P]|

   @DF-RHF iter SAD:  -153.38694710807039   -1.53387e+02   0.00000e+00 
   @DF-RHF iter   1:  -153.98268224997645   -5.95735e-01   7.35324e-03 DIIS
   @DF-RHF iter   2:  -154.05766498987310   -7.49827e-02   3.75407e-03 DIIS
   @DF-RHF iter   3:  -154.07466777951515   -1.70028e-02   6.26640e-04 DIIS
   @DF-RHF iter   4:  -154.07560182036264   -9.34041e-04   1.87349e-04 DIIS
   @DF-RHF iter   5:  -154.07566676976506   -6.49494e-05   3.79960e-05 DIIS
   @DF-RHF iter   6:  -154.07567049154619   -3.72178e-06   6.71324e-06 DIIS
   @DF-RHF iter   7:  -154.07567064838011   -1.56834e-07   1.60789e-06 DIIS
   @DF-RHF iter   8:  -154.07567065658526   -8.20515e-09   5.30275e-07 DIIS
   @DF-RHF iter   9:  -154.07567065741370   -8.28436e-10   1.14316e-07 DIIS
   @DF-RHF iter  10:  -154.07567065746869   -5.49960e-11   2.34155e-08 DIIS
   @DF-RHF iter  11:  -154.07567065747116   -2.47269e-12   4.52961e-09 DIIS
  Energy and wave function converged.


  ==> Post-Iterations <==

    Orbital Energies [Eh]
    ---------------------

    Doubly Occupied:                                                      

       1A    -20.552648     2A    -11.270547     3A    -11.208670  
       4A     -1.359401     5A     -1.011784     6A     -0.836053  
       7A     -0.702135     8A     -0.645336     9A     -0.568763  
      10A     -0.533853    11A     -0.524722    12A     -0.483163  
      13A     -0.435232  

    Virtual:                                                              

      14A      0.226980    15A      0.265771    16A      0.312045  
      17A      0.312775    18A      0.329369    19A      0.352353  
      20A      0.403434    21A      0.414262    22A      0.724737  
      23A      0.756526    24A      0.792041    25A      0.821086  
      26A      0.906618    27A      0.937386    28A      1.089699  
      29A      1.127014    30A      1.166501    31A      1.181030  
      32A      1.193869    33A      1.202796    34A      1.253699  
      35A      1.293630    36A      1.295633    37A      1.430308  
      38A      1.646239    39A      1.717643    40A      1.765776  
      41A      1.921447    42A      2.035103    43A      2.089845  
      44A      2.236146    45A      2.273292    46A      2.388848  
      47A      2.514565    48A      2.578617    49A      2.683969  
      50A      2.727220    51A      2.764087    52A      2.872237  
      53A      2.980748    54A      3.214699    55A      4.158343  
      56A      4.607893    57A      4.829443  

    Final Occupation by Irrep:
              A 
    DOCC [    13 ]

  @DF-RHF Final Energy:  -154.07567065747116

   => Energetics <=

    Nuclear Repulsion Energy =             82.4165650934595106
    One-Electron Energy =                -372.7198595265717245
    Two-Electron Energy =                 136.2276237756410637
    Total Energy =                       -154.0756706574711643

Computation Completed


Properties will be evaluated at   0.000000,   0.000000,   0.000000 [a0]

Properties computed using the SCF density matrix

  Nuclear Dipole Moment: [e a0]
     X:    -2.5058      Y:    -1.0994      Z:     0.5527

  Electronic Dipole Moment: [e a0]
     X:     2.5809      Y:     0.4391      Z:    -0.3896

  Dipole Moment: [e a0]
     X:     0.0751      Y:    -0.6603      Z:     0.1630     Total:     0.6843

  Dipole Moment: [D]
     X:     0.1909      Y:    -1.6783      Z:     0.4144     Total:     1.7392


*** tstop() called on earth at Thu Aug 17 16:41:32 2023
Module time:
	user time   =       0.76 seconds =       0.01 minutes
	system time =       0.02 seconds =       0.00 minutes
	total time  =          1 seconds =       0.02 minutes
Total time:
	user time   =       3.51 seconds =       0.06 minutes
	system time =       0.12 seconds =       0.00 minutes
	total time  =          4 seconds =       0.07 minutes

*** tstart() called on earth
*** at Thu Aug 17 16:41:32 2023


         ------------------------------------------------------------
                                   SCF GRAD                          
                          Rob Parrish, Justin Turney,                
                       Andy Simmonett, and Alex Sokolov              
         ------------------------------------------------------------

  ==> Geometry <==

    Molecular point group: c1
    Full point group: C1

    Geometry (in Angstrom), charge = 0, multiplicity = 1:

       Center              X                  Y                   Z               Mass       
    ------------   -----------------  -----------------  -----------------  -----------------
         C            0.026884633786    -0.552187795306     0.140178570671    12.000000000000
         H           -0.018908934992    -1.394143754659    -0.548155487542     1.007825032230
         H            0.161564996061    -0.956037307383     1.142123356145     1.007825032230
         O            1.091612611375     0.301660175180    -0.194715557864    15.994914619570
         H            1.907690880077    -0.176576965987    -0.157888264781     1.007825032230
         C           -1.256946702795     0.248727484974     0.069764031997    12.000000000000
         H           -1.399729095587     0.643675615966    -0.929811816822     1.007825032230
         H           -1.219077965674     1.082214318366     0.762142753402     1.007825032230
         H           -2.110085859747    -0.373447868206     0.322116061037     1.007825032230

  Nuclear repulsion =   82.416565093459511

  ==> Basis Set <==

  Basis Set: 6-31G(D)
    Blend: 6-31G(D)
    Number of shells: 30
    Number of basis functions: 57
    Number of Cartesian functions: 57
    Spherical Harmonics?: false
    Max angular momentum: 2

  ==> DFJKGrad: Density-Fitted SCF Gradients <==

    Gradient:                    1
    J tasked:                  Yes
    K tasked:                  Yes
    wK tasked:                  No
    OpenMP threads:              1
    Integrals threads:           1
    Memory [MiB]:             2861
    Schwarz Cutoff:          1E-12
    Fitting Condition:       1E-10

   => Auxiliary Basis Set <=

  Basis Set: (6-31G(D) AUX)
    Blend: CC-PVDZ-JKFIT
    Number of shells: 126
    Number of basis functions: 393
    Number of Cartesian functions: 393
    Spherical Harmonics?: false
    Max angular momentum: 3


  -Total Gradient:
     Atom            X                  Y                   Z
    ------   -----------------  -----------------  -----------------
       1       -0.001016153356     0.000053094176    -0.000032690529
       2        0.000107551717    -0.000003613626     0.000006761949
       3        0.000119517992    -0.000030658007     0.000071577308
       4        0.000364856112     0.000096098146    -0.000049147401
       5        0.000055311655     0.000064666599    -0.000022513645
       6        0.000331163437    -0.000157196140     0.000024372927
       7        0.000008683346    -0.000003335491    -0.000002740818
       8       -0.000001863063     0.000004845448     0.000001105921
       9        0.000030932159    -0.000023901106     0.000003274287


*** tstop() called on earth at Thu Aug 17 16:41:32 2023
Module time:
	user time   =       0.36 seconds =       0.01 minutes
	system time =       0.02 seconds =       0.00 minutes
	total time  =          0 seconds =       0.00 minutes
Total time:
	user time   =       3.87 seconds =       0.06 minutes
	system time =       0.14 seconds =       0.00 minutes
	total time  =          4 seconds =       0.07 minutes

  //>>>>>>>>>>>>>>>>>>>>>>>>>>>>>>>>>>>//
  //    Loading displacement 3 of 43   //
  //<<<<<<<<<<<<<<<<<<<<<<<<<<<<<<<<<<<//

Scratch directory: /tmp/
gradient() will perform analytic gradient computation.

*** tstart() called on earth
*** at Thu Aug 17 16:41:32 2023

   => Loading Basis Set <=

    Name: 6-31G(D)
    Role: ORBITAL
    Keyword: BASIS
    atoms 1, 6        entry C          line   111 file /media/storage-1/miniconda3/envs/psi4/share/psi4/basis/6-31g_d_.gbs 
    atoms 2-3, 5, 7-9 entry H          line    44 file /media/storage-1/miniconda3/envs/psi4/share/psi4/basis/6-31g_d_.gbs 
    atoms 4           entry O          line   145 file /media/storage-1/miniconda3/envs/psi4/share/psi4/basis/6-31g_d_.gbs 


         ---------------------------------------------------------
                                   SCF
               by Justin Turney, Rob Parrish, Andy Simmonett
                          and Daniel G. A. Smith
                              RHF Reference
                        1 Threads,   3814 MiB Core
         ---------------------------------------------------------

  ==> Geometry <==

    Molecular point group: c1
    Full point group: C1

    Geometry (in Angstrom), charge = 0, multiplicity = 1:

       Center              X                  Y                   Z               Mass       
    ------------   -----------------  -----------------  -----------------  -----------------
         C            0.028138257398    -0.552203503423     0.140140764887    12.000000000000
         H           -0.019657118622    -1.394100777336    -0.548255529752     1.007825032230
         H            0.160820860377    -0.956152139795     1.142063776865     1.007825032230
         O            1.091200566105     0.301445872557    -0.194637629172    15.994914619570
         H            1.907176945470    -0.176964456823    -0.157802070037     1.007825032230
         C           -1.257383452679     0.248985311519     0.069716624749    12.000000000000
         H           -1.400031529875     0.644034286843    -0.929838550604     1.007825032230
         H           -1.219376348437     1.082415023417     0.762156522428     1.007825032230
         H           -2.110665706863    -0.373029622705     0.321980284609     1.007825032230

  Running in c1 symmetry.

  Rotational constants: A =      1.19531  B =      0.31628  C =      0.27552 [cm^-1]
  Rotational constants: A =  35834.49868  B =   9481.84145  C =   8259.80766 [MHz]
  Nuclear repulsion =   82.420690710511835

  Charge       = 0
  Multiplicity = 1
  Electrons    = 26
  Nalpha       = 13
  Nbeta        = 13

  ==> Algorithm <==

  SCF Algorithm Type is DF.
  DIIS enabled.
  MOM disabled.
  Fractional occupation disabled.
  Guess Type is SAD.
  Energy threshold   = 1.00e-08
  Density threshold  = 1.00e-08
  Integral threshold = 1.00e-12

  ==> Primary Basis <==

  Basis Set: 6-31G(D)
    Blend: 6-31G(D)
    Number of shells: 30
    Number of basis functions: 57
    Number of Cartesian functions: 57
    Spherical Harmonics?: false
    Max angular momentum: 2

   => Loading Basis Set <=

    Name: (6-31G(D) AUX)
    Role: JKFIT
    Keyword: DF_BASIS_SCF
    atoms 1, 6        entry C          line   121 file /media/storage-1/miniconda3/envs/psi4/share/psi4/basis/cc-pvdz-jkfit.gbs 
    atoms 2-3, 5, 7-9 entry H          line    51 file /media/storage-1/miniconda3/envs/psi4/share/psi4/basis/cc-pvdz-jkfit.gbs 
    atoms 4           entry O          line   221 file /media/storage-1/miniconda3/envs/psi4/share/psi4/basis/cc-pvdz-jkfit.gbs 

  ==> Integral Setup <==

  DFHelper Memory: AOs need 0.011 GiB; user supplied 2.794 GiB. Using in-core AOs.

  ==> MemDFJK: Density-Fitted J/K Matrices <==

    J tasked:                   Yes
    K tasked:                   Yes
    wK tasked:                   No
    OpenMP threads:               1
    Memory [MiB]:              2861
    Algorithm:                 Core
    Schwarz Cutoff:           1E-12
    Mask sparsity (%):       0.0616
    Fitting Condition:        1E-10

   => Auxiliary Basis Set <=

  Basis Set: (6-31G(D) AUX)
    Blend: CC-PVDZ-JKFIT
    Number of shells: 126
    Number of basis functions: 393
    Number of Cartesian functions: 393
    Spherical Harmonics?: false
    Max angular momentum: 3

  Minimum eigenvalue in the overlap matrix is 5.7756424554E-03.
  Reciprocal condition number of the overlap matrix is 8.6256959646E-04.
    Using symmetric orthogonalization.

  ==> Pre-Iterations <==

  SCF Guess: Superposition of Atomic Densities via on-the-fly atomic UHF (no occupation information).

   -------------------------
    Irrep   Nso     Nmo    
   -------------------------
     A         57      57 
   -------------------------
    Total      57      57
   -------------------------

  ==> Iterations <==

                           Total Energy        Delta E     RMS |[F,P]|

   @DF-RHF iter SAD:  -153.38739612019867   -1.53387e+02   0.00000e+00 
   @DF-RHF iter   1:  -153.98276939827406   -5.95373e-01   7.34956e-03 DIIS
   @DF-RHF iter   2:  -154.05769758941508   -7.49282e-02   3.75029e-03 DIIS
   @DF-RHF iter   3:  -154.07466895175676   -1.69714e-02   6.26283e-04 DIIS
   @DF-RHF iter   4:  -154.07560203296555   -9.33081e-04   1.86996e-04 DIIS
   @DF-RHF iter   5:  -154.07566675518271   -6.47222e-05   3.79750e-05 DIIS
   @DF-RHF iter   6:  -154.07567047352123   -3.71834e-06   6.69943e-06 DIIS
   @DF-RHF iter   7:  -154.07567063003631   -1.56515e-07   1.59880e-06 DIIS
   @DF-RHF iter   8:  -154.07567063818570   -8.14939e-09   5.26784e-07 DIIS
   @DF-RHF iter   9:  -154.07567063899961   -8.13912e-10   1.14081e-07 DIIS
   @DF-RHF iter  10:  -154.07567063905435   -5.47402e-11   2.33660e-08 DIIS
   @DF-RHF iter  11:  -154.07567063905640   -2.04636e-12   4.52474e-09 DIIS
  Energy and wave function converged.


  ==> Post-Iterations <==

    Orbital Energies [Eh]
    ---------------------

    Doubly Occupied:                                                      

       1A    -20.552871     2A    -11.270527     3A    -11.208650  
       4A     -1.360056     5A     -1.011371     6A     -0.836106  
       7A     -0.702503     8A     -0.645403     9A     -0.568940  
      10A     -0.533902    11A     -0.524807    12A     -0.482765  
      13A     -0.435280  

    Virtual:                                                              

      14A      0.226979    15A      0.265757    16A      0.312315  
      17A      0.312799    18A      0.329476    19A      0.352327  
      20A      0.403491    21A      0.414161    22A      0.725165  
      23A      0.756596    24A      0.791957    25A      0.821657  
      26A      0.906294    27A      0.936483    28A      1.089640  
      29A      1.127226    30A      1.166230    31A      1.181217  
      32A      1.193895    33A      1.202830    34A      1.253837  
      35A      1.293420    36A      1.295643    37A      1.430421  
      38A      1.646142    39A      1.717643    40A      1.765745  
      41A      1.921322    42A      2.034639    43A      2.089578  
      44A      2.236524    45A      2.272224    46A      2.390007  
      47A      2.514400    48A      2.578981    49A      2.682560  
      50A      2.727083    51A      2.765841    52A      2.872115  
      53A      2.980511    54A      3.215060    55A      4.158728  
      56A      4.607355    57A      4.829353  

    Final Occupation by Irrep:
              A 
    DOCC [    13 ]

  @DF-RHF Final Energy:  -154.07567063905640

   => Energetics <=

    Nuclear Repulsion Energy =             82.4206907105118347
    One-Electron Energy =                -372.7263621329326497
    Two-Electron Energy =                 136.2300007833644031
    Total Energy =                       -154.0756706390563977

Computation Completed


Properties will be evaluated at   0.000000,   0.000000,   0.000000 [a0]

Properties computed using the SCF density matrix

  Nuclear Dipole Moment: [e a0]
     X:    -2.5088      Y:    -1.0990      Z:     0.5525

  Electronic Dipole Moment: [e a0]
     X:     2.5865      Y:     0.4395      Z:    -0.3898

  Dipole Moment: [e a0]
     X:     0.0777      Y:    -0.6595      Z:     0.1627     Total:     0.6837

  Dipole Moment: [D]
     X:     0.1976      Y:    -1.6762      Z:     0.4135     Total:     1.7377


*** tstop() called on earth at Thu Aug 17 16:41:33 2023
Module time:
	user time   =       0.80 seconds =       0.01 minutes
	system time =       0.01 seconds =       0.00 minutes
	total time  =          1 seconds =       0.02 minutes
Total time:
	user time   =       4.69 seconds =       0.08 minutes
	system time =       0.15 seconds =       0.00 minutes
	total time  =          5 seconds =       0.08 minutes

*** tstart() called on earth
*** at Thu Aug 17 16:41:33 2023


         ------------------------------------------------------------
                                   SCF GRAD                          
                          Rob Parrish, Justin Turney,                
                       Andy Simmonett, and Alex Sokolov              
         ------------------------------------------------------------

  ==> Geometry <==

    Molecular point group: c1
    Full point group: C1

    Geometry (in Angstrom), charge = 0, multiplicity = 1:

       Center              X                  Y                   Z               Mass       
    ------------   -----------------  -----------------  -----------------  -----------------
         C            0.028138257398    -0.552203503423     0.140140764887    12.000000000000
         H           -0.019657118622    -1.394100777336    -0.548255529752     1.007825032230
         H            0.160820860377    -0.956152139795     1.142063776865     1.007825032230
         O            1.091200566105     0.301445872557    -0.194637629172    15.994914619570
         H            1.907176945470    -0.176964456823    -0.157802070037     1.007825032230
         C           -1.257383452679     0.248985311519     0.069716624749    12.000000000000
         H           -1.400031529875     0.644034286843    -0.929838550604     1.007825032230
         H           -1.219376348437     1.082415023417     0.762156522428     1.007825032230
         H           -2.110665706863    -0.373029622705     0.321980284609     1.007825032230

  Nuclear repulsion =   82.420690710511835

  ==> Basis Set <==

  Basis Set: 6-31G(D)
    Blend: 6-31G(D)
    Number of shells: 30
    Number of basis functions: 57
    Number of Cartesian functions: 57
    Spherical Harmonics?: false
    Max angular momentum: 2

  ==> DFJKGrad: Density-Fitted SCF Gradients <==

    Gradient:                    1
    J tasked:                  Yes
    K tasked:                  Yes
    wK tasked:                  No
    OpenMP threads:              1
    Integrals threads:           1
    Memory [MiB]:             2861
    Schwarz Cutoff:          1E-12
    Fitting Condition:       1E-10

   => Auxiliary Basis Set <=

  Basis Set: (6-31G(D) AUX)
    Blend: CC-PVDZ-JKFIT
    Number of shells: 126
    Number of basis functions: 393
    Number of Cartesian functions: 393
    Spherical Harmonics?: false
    Max angular momentum: 3


  -Total Gradient:
     Atom            X                  Y                   Z
    ------   -----------------  -----------------  -----------------
       1        0.001026629645    -0.000023760246     0.000024102511
       2       -0.000118173311    -0.000002937926    -0.000004267797
       3       -0.000129996097     0.000024236247    -0.000068542083
       4       -0.000362374740    -0.000105697968     0.000051210694
       5       -0.000047163038    -0.000055950731     0.000019467576
       6       -0.000336398417     0.000139622957    -0.000019153439
       7       -0.000005920407     0.000002203339     0.000002144984
       8        0.000004729824    -0.000005699045    -0.000000630919
       9       -0.000031333459     0.000027983371    -0.000004331526


*** tstop() called on earth at Thu Aug 17 16:41:33 2023
Module time:
	user time   =       0.38 seconds =       0.01 minutes
	system time =       0.01 seconds =       0.00 minutes
	total time  =          0 seconds =       0.00 minutes
Total time:
	user time   =       5.07 seconds =       0.08 minutes
	system time =       0.16 seconds =       0.00 minutes
	total time  =          5 seconds =       0.08 minutes

  //>>>>>>>>>>>>>>>>>>>>>>>>>>>>>>>>>>>//
  //    Loading displacement 4 of 43   //
  //<<<<<<<<<<<<<<<<<<<<<<<<<<<<<<<<<<<//

Scratch directory: /tmp/
gradient() will perform analytic gradient computation.

*** tstart() called on earth
*** at Thu Aug 17 16:41:33 2023

   => Loading Basis Set <=

    Name: 6-31G(D)
    Role: ORBITAL
    Keyword: BASIS
    atoms 1, 6        entry C          line   111 file /media/storage-1/miniconda3/envs/psi4/share/psi4/basis/6-31g_d_.gbs 
    atoms 2-3, 5, 7-9 entry H          line    44 file /media/storage-1/miniconda3/envs/psi4/share/psi4/basis/6-31g_d_.gbs 
    atoms 4           entry O          line   145 file /media/storage-1/miniconda3/envs/psi4/share/psi4/basis/6-31g_d_.gbs 


         ---------------------------------------------------------
                                   SCF
               by Justin Turney, Rob Parrish, Andy Simmonett
                          and Daniel G. A. Smith
                              RHF Reference
                        1 Threads,   3814 MiB Core
         ---------------------------------------------------------

  ==> Geometry <==

    Molecular point group: c1
    Full point group: C1

    Geometry (in Angstrom), charge = 0, multiplicity = 1:

       Center              X                  Y                   Z               Mass       
    ------------   -----------------  -----------------  -----------------  -----------------
         C            0.027511445592    -0.552844660899     0.140219500526    12.000000000000
         H           -0.019259986261    -1.393947699130    -0.548054359071     1.007825032230
         H            0.161211199990    -0.955734244685     1.142197047627     1.007825032230
         O            1.091404856093     0.301782377980    -0.194710396417    15.994914619570
         H            1.907439307521    -0.176525269219    -0.157827949784     1.007825032230
         C           -1.257165759647     0.249079605373     0.069714633146    12.000000000000
         H           -1.399887868773     0.643967685208    -0.929893553241     1.007825032230
         H           -1.219239486570     1.082613501018     0.762033552902     1.007825032230
         H           -2.110366987059    -0.373000833385     0.322090785969     1.007825032230

  Running in c1 symmetry.

  Rotational constants: A =      1.19432  B =      0.31628  C =      0.27547 [cm^-1]
  Rotational constants: A =  35804.77839  B =   9481.91538  C =   8258.28375 [MHz]
  Nuclear repulsion =   82.409367059092929

  Charge       = 0
  Multiplicity = 1
  Electrons    = 26
  Nalpha       = 13
  Nbeta        = 13

  ==> Algorithm <==

  SCF Algorithm Type is DF.
  DIIS enabled.
  MOM disabled.
  Fractional occupation disabled.
  Guess Type is SAD.
  Energy threshold   = 1.00e-08
  Density threshold  = 1.00e-08
  Integral threshold = 1.00e-12

  ==> Primary Basis <==

  Basis Set: 6-31G(D)
    Blend: 6-31G(D)
    Number of shells: 30
    Number of basis functions: 57
    Number of Cartesian functions: 57
    Spherical Harmonics?: false
    Max angular momentum: 2

   => Loading Basis Set <=

    Name: (6-31G(D) AUX)
    Role: JKFIT
    Keyword: DF_BASIS_SCF
    atoms 1, 6        entry C          line   121 file /media/storage-1/miniconda3/envs/psi4/share/psi4/basis/cc-pvdz-jkfit.gbs 
    atoms 2-3, 5, 7-9 entry H          line    51 file /media/storage-1/miniconda3/envs/psi4/share/psi4/basis/cc-pvdz-jkfit.gbs 
    atoms 4           entry O          line   221 file /media/storage-1/miniconda3/envs/psi4/share/psi4/basis/cc-pvdz-jkfit.gbs 

  ==> Integral Setup <==

  DFHelper Memory: AOs need 0.011 GiB; user supplied 2.794 GiB. Using in-core AOs.

  ==> MemDFJK: Density-Fitted J/K Matrices <==

    J tasked:                   Yes
    K tasked:                   Yes
    wK tasked:                   No
    OpenMP threads:               1
    Memory [MiB]:              2861
    Algorithm:                 Core
    Schwarz Cutoff:           1E-12
    Mask sparsity (%):       0.0616
    Fitting Condition:        1E-10

   => Auxiliary Basis Set <=

  Basis Set: (6-31G(D) AUX)
    Blend: CC-PVDZ-JKFIT
    Number of shells: 126
    Number of basis functions: 393
    Number of Cartesian functions: 393
    Spherical Harmonics?: false
    Max angular momentum: 3

  Minimum eigenvalue in the overlap matrix is 5.7751673433E-03.
  Reciprocal condition number of the overlap matrix is 8.6252546556E-04.
    Using symmetric orthogonalization.

  ==> Pre-Iterations <==

  SCF Guess: Superposition of Atomic Densities via on-the-fly atomic UHF (no occupation information).

   -------------------------
    Irrep   Nso     Nmo    
   -------------------------
     A         57      57 
   -------------------------
    Total      57      57
   -------------------------

  ==> Iterations <==

                           Total Energy        Delta E     RMS |[F,P]|

   @DF-RHF iter SAD:  -153.38598994522692   -1.53386e+02   0.00000e+00 
   @DF-RHF iter   1:  -153.98274554812656   -5.96756e-01   7.35105e-03 DIIS
   @DF-RHF iter   2:  -154.05767866122085   -7.49331e-02   3.75274e-03 DIIS
   @DF-RHF iter   3:  -154.07466847202741   -1.69898e-02   6.26563e-04 DIIS
   @DF-RHF iter   4:  -154.07560187165723   -9.33400e-04   1.87231e-04 DIIS
   @DF-RHF iter   5:  -154.07566675513485   -6.48835e-05   3.79804e-05 DIIS
   @DF-RHF iter   6:  -154.07567047457025   -3.71944e-06   6.70188e-06 DIIS
   @DF-RHF iter   7:  -154.07567063115971   -1.56589e-07   1.59818e-06 DIIS
   @DF-RHF iter   8:  -154.07567063930614   -8.14643e-09   5.26569e-07 DIIS
   @DF-RHF iter   9:  -154.07567064011971   -8.13571e-10   1.14198e-07 DIIS
   @DF-RHF iter  10:  -154.07567064017400   -5.42855e-11   2.34061e-08 DIIS
   @DF-RHF iter  11:  -154.07567064017638   -2.38742e-12   4.53111e-09 DIIS
  Energy and wave function converged.


  ==> Post-Iterations <==

    Orbital Energies [Eh]
    ---------------------

    Doubly Occupied:                                                      

       1A    -20.552714     2A    -11.270490     3A    -11.208675  
       4A     -1.359505     5A     -1.011495     6A     -0.836163  
       7A     -0.702145     8A     -0.645439     9A     -0.568699  
      10A     -0.533751    11A     -0.524748    12A     -0.482972  
      13A     -0.435435  

    Virtual:                                                              

      14A      0.227035    15A      0.265742    16A      0.312263  
      17A      0.312813    18A      0.329453    19A      0.352349  
      20A      0.403212    21A      0.414021    22A      0.724985  
      23A      0.756498    24A      0.792010    25A      0.821130  
      26A      0.906523    27A      0.936647    28A      1.089785  
      29A      1.127601    30A      1.166375    31A      1.181048  
      32A      1.193941    33A      1.203113    34A      1.253796  
      35A      1.293700    36A      1.295723    37A      1.430229  
      38A      1.646197    39A      1.717776    40A      1.765371  
      41A      1.921433    42A      2.035082    43A      2.089974  
      44A      2.236456    45A      2.272286    46A      2.389075  
      47A      2.514279    48A      2.578899    49A      2.683343  
      50A      2.727109    51A      2.764527    52A      2.871823  
      53A      2.979758    54A      3.214781    55A      4.158305  
      56A      4.607611    57A      4.829481  

    Final Occupation by Irrep:
              A 
    DOCC [    13 ]

  @DF-RHF Final Energy:  -154.07567064017638

   => Energetics <=

    Nuclear Repulsion Energy =             82.4093670590929293
    One-Electron Energy =                -372.7056149218814198
    Two-Electron Energy =                 136.2205772226121212
    Total Energy =                       -154.0756706401763836

Computation Completed


Properties will be evaluated at   0.000000,   0.000000,   0.000000 [a0]

Properties computed using the SCF density matrix

  Nuclear Dipole Moment: [e a0]
     X:    -2.5073      Y:    -1.0979      Z:     0.5527

  Electronic Dipole Moment: [e a0]
     X:     2.5833      Y:     0.4370      Z:    -0.3897

  Dipole Moment: [e a0]
     X:     0.0760      Y:    -0.6609      Z:     0.1630     Total:     0.6849

  Dipole Moment: [D]
     X:     0.1933      Y:    -1.6798      Z:     0.4142     Total:     1.7408


*** tstop() called on earth at Thu Aug 17 16:41:34 2023
Module time:
	user time   =       0.78 seconds =       0.01 minutes
	system time =       0.01 seconds =       0.00 minutes
	total time  =          1 seconds =       0.02 minutes
Total time:
	user time   =       5.86 seconds =       0.10 minutes
	system time =       0.17 seconds =       0.00 minutes
	total time  =          6 seconds =       0.10 minutes

*** tstart() called on earth
*** at Thu Aug 17 16:41:34 2023


         ------------------------------------------------------------
                                   SCF GRAD                          
                          Rob Parrish, Justin Turney,                
                       Andy Simmonett, and Alex Sokolov              
         ------------------------------------------------------------

  ==> Geometry <==

    Molecular point group: c1
    Full point group: C1

    Geometry (in Angstrom), charge = 0, multiplicity = 1:

       Center              X                  Y                   Z               Mass       
    ------------   -----------------  -----------------  -----------------  -----------------
         C            0.027511445592    -0.552844660899     0.140219500526    12.000000000000
         H           -0.019259986261    -1.393947699130    -0.548054359071     1.007825032230
         H            0.161211199990    -0.955734244685     1.142197047627     1.007825032230
         O            1.091404856093     0.301782377980    -0.194710396417    15.994914619570
         H            1.907439307521    -0.176525269219    -0.157827949784     1.007825032230
         C           -1.257165759647     0.249079605373     0.069714633146    12.000000000000
         H           -1.399887868773     0.643967685208    -0.929893553241     1.007825032230
         H           -1.219239486570     1.082613501018     0.762033552902     1.007825032230
         H           -2.110366987059    -0.373000833385     0.322090785969     1.007825032230

  Nuclear repulsion =   82.409367059092929

  ==> Basis Set <==

  Basis Set: 6-31G(D)
    Blend: 6-31G(D)
    Number of shells: 30
    Number of basis functions: 57
    Number of Cartesian functions: 57
    Spherical Harmonics?: false
    Max angular momentum: 2

  ==> DFJKGrad: Density-Fitted SCF Gradients <==

    Gradient:                    1
    J tasked:                  Yes
    K tasked:                  Yes
    wK tasked:                  No
    OpenMP threads:              1
    Integrals threads:           1
    Memory [MiB]:             2861
    Schwarz Cutoff:          1E-12
    Fitting Condition:       1E-10

   => Auxiliary Basis Set <=

  Basis Set: (6-31G(D) AUX)
    Blend: CC-PVDZ-JKFIT
    Number of shells: 126
    Number of basis functions: 393
    Number of Cartesian functions: 393
    Spherical Harmonics?: false
    Max angular momentum: 3


  -Total Gradient:
     Atom            X                  Y                   Z
    ------   -----------------  -----------------  -----------------
       1        0.000030104924    -0.001080908543    -0.000024325895
       2       -0.000008134171     0.000357619546     0.000228193324
       3       -0.000035196599     0.000159379258    -0.000135834796
       4        0.000183848648     0.000320409901    -0.000067869840
       5       -0.000036997873    -0.000021713902     0.000009866173
       6       -0.000109693228     0.000244356762    -0.000006900365
       7       -0.000020459597     0.000014337000    -0.000000423506
       8       -0.000046756590     0.000030036174    -0.000005107099
       9        0.000043284482    -0.000023516194     0.000002402004


*** tstop() called on earth at Thu Aug 17 16:41:35 2023
Module time:
	user time   =       0.37 seconds =       0.01 minutes
	system time =       0.01 seconds =       0.00 minutes
	total time  =          1 seconds =       0.02 minutes
Total time:
	user time   =       6.23 seconds =       0.10 minutes
	system time =       0.18 seconds =       0.00 minutes
	total time  =          7 seconds =       0.12 minutes

  //>>>>>>>>>>>>>>>>>>>>>>>>>>>>>>>>>>>//
  //    Loading displacement 5 of 43   //
  //<<<<<<<<<<<<<<<<<<<<<<<<<<<<<<<<<<<//

Scratch directory: /tmp/
gradient() will perform analytic gradient computation.

*** tstart() called on earth
*** at Thu Aug 17 16:41:35 2023

   => Loading Basis Set <=

    Name: 6-31G(D)
    Role: ORBITAL
    Keyword: BASIS
    atoms 1, 6        entry C          line   111 file /media/storage-1/miniconda3/envs/psi4/share/psi4/basis/6-31g_d_.gbs 
    atoms 2-3, 5, 7-9 entry H          line    44 file /media/storage-1/miniconda3/envs/psi4/share/psi4/basis/6-31g_d_.gbs 
    atoms 4           entry O          line   145 file /media/storage-1/miniconda3/envs/psi4/share/psi4/basis/6-31g_d_.gbs 


         ---------------------------------------------------------
                                   SCF
               by Justin Turney, Rob Parrish, Andy Simmonett
                          and Daniel G. A. Smith
                              RHF Reference
                        1 Threads,   3814 MiB Core
         ---------------------------------------------------------

  ==> Geometry <==

    Molecular point group: c1
    Full point group: C1

    Geometry (in Angstrom), charge = 0, multiplicity = 1:

       Center              X                  Y                   Z               Mass       
    ------------   -----------------  -----------------  -----------------  -----------------
         C            0.027511445592    -0.551546637830     0.140099835031    12.000000000000
         H           -0.019306067353    -1.394296832865    -0.548356658223     1.007825032230
         H            0.161174656448    -0.956455202493     1.141990085382     1.007825032230
         O            1.091408321387     0.301323669757    -0.194642790619    15.994914619570
         H            1.907428518025    -0.177016153592    -0.157862385034     1.007825032230
         C           -1.257164395827     0.248633191120     0.069766023600    12.000000000000
         H           -1.399872756689     0.643742217601    -0.929756814185     1.007825032230
         H           -1.219214827542     1.082015840766     0.762265722928     1.007825032230
         H           -2.110384579550    -0.373476657526     0.322005559677     1.007825032230

  Running in c1 symmetry.

  Rotational constants: A =      1.19634  B =      0.31628  C =      0.27557 [cm^-1]
  Rotational constants: A =  35865.28569  B =   9481.91501  C =   8261.49817 [MHz]
  Nuclear repulsion =   82.427879387169597

  Charge       = 0
  Multiplicity = 1
  Electrons    = 26
  Nalpha       = 13
  Nbeta        = 13

  ==> Algorithm <==

  SCF Algorithm Type is DF.
  DIIS enabled.
  MOM disabled.
  Fractional occupation disabled.
  Guess Type is SAD.
  Energy threshold   = 1.00e-08
  Density threshold  = 1.00e-08
  Integral threshold = 1.00e-12

  ==> Primary Basis <==

  Basis Set: 6-31G(D)
    Blend: 6-31G(D)
    Number of shells: 30
    Number of basis functions: 57
    Number of Cartesian functions: 57
    Spherical Harmonics?: false
    Max angular momentum: 2

   => Loading Basis Set <=

    Name: (6-31G(D) AUX)
    Role: JKFIT
    Keyword: DF_BASIS_SCF
    atoms 1, 6        entry C          line   121 file /media/storage-1/miniconda3/envs/psi4/share/psi4/basis/cc-pvdz-jkfit.gbs 
    atoms 2-3, 5, 7-9 entry H          line    51 file /media/storage-1/miniconda3/envs/psi4/share/psi4/basis/cc-pvdz-jkfit.gbs 
    atoms 4           entry O          line   221 file /media/storage-1/miniconda3/envs/psi4/share/psi4/basis/cc-pvdz-jkfit.gbs 

  ==> Integral Setup <==

  DFHelper Memory: AOs need 0.011 GiB; user supplied 2.794 GiB. Using in-core AOs.

  ==> MemDFJK: Density-Fitted J/K Matrices <==

    J tasked:                   Yes
    K tasked:                   Yes
    wK tasked:                   No
    OpenMP threads:               1
    Memory [MiB]:              2861
    Algorithm:                 Core
    Schwarz Cutoff:           1E-12
    Mask sparsity (%):       0.0616
    Fitting Condition:        1E-10

   => Auxiliary Basis Set <=

  Basis Set: (6-31G(D) AUX)
    Blend: CC-PVDZ-JKFIT
    Number of shells: 126
    Number of basis functions: 393
    Number of Cartesian functions: 393
    Spherical Harmonics?: false
    Max angular momentum: 3

  Minimum eigenvalue in the overlap matrix is 5.7689132035E-03.
  Reciprocal condition number of the overlap matrix is 8.6142595682E-04.
    Using symmetric orthogonalization.

  ==> Pre-Iterations <==

  SCF Guess: Superposition of Atomic Densities via on-the-fly atomic UHF (no occupation information).

   -------------------------
    Irrep   Nso     Nmo    
   -------------------------
     A         57      57 
   -------------------------
    Total      57      57
   -------------------------

  ==> Iterations <==

                           Total Energy        Delta E     RMS |[F,P]|

   @DF-RHF iter SAD:  -153.38835080067497   -1.53388e+02   0.00000e+00 
   @DF-RHF iter   1:  -153.98270620879802   -5.94355e-01   7.35175e-03 DIIS
   @DF-RHF iter   2:  -154.05768387415233   -7.49777e-02   3.75162e-03 DIIS
   @DF-RHF iter   3:  -154.07466819794024   -1.69843e-02   6.26360e-04 DIIS
   @DF-RHF iter   4:  -154.07560192095914   -9.33723e-04   1.87113e-04 DIIS
   @DF-RHF iter   5:  -154.07566670861502   -6.47877e-05   3.79906e-05 DIIS
   @DF-RHF iter   6:  -154.07567042929350   -3.72068e-06   6.71079e-06 DIIS
   @DF-RHF iter   7:  -154.07567058605284   -1.56759e-07   1.60852e-06 DIIS
   @DF-RHF iter   8:  -154.07567059426148   -8.20864e-09   5.30477e-07 DIIS
   @DF-RHF iter   9:  -154.07567059509029   -8.28805e-10   1.14198e-07 DIIS
   @DF-RHF iter  10:  -154.07567059514497   -5.46834e-11   2.33753e-08 DIIS
   @DF-RHF iter  11:  -154.07567059514727   -2.30216e-12   4.52332e-09 DIIS
  Energy and wave function converged.


  ==> Post-Iterations <==

    Orbital Energies [Eh]
    ---------------------

    Doubly Occupied:                                                      

       1A    -20.552805     2A    -11.270584     3A    -11.208646  
       4A     -1.359951     5A     -1.011659     6A     -0.835997  
       7A     -0.702494     8A     -0.645300     9A     -0.569002  
      10A     -0.534004    11A     -0.524782    12A     -0.482957  
      13A     -0.435076  

    Virtual:                                                              

      14A      0.226924    15A      0.265787    16A      0.312097  
      17A      0.312762    18A      0.329392    19A      0.352331  
      20A      0.403725    21A      0.414391    22A      0.724918  
      23A      0.756624    24A      0.791988    25A      0.821612  
      26A      0.906390    27A      0.937221    28A      1.089554  
      29A      1.126641    30A      1.166355    31A      1.181199  
      32A      1.193823    33A      1.202514    34A      1.253739  
      35A      1.293350    36A      1.295554    37A      1.430500  
      38A      1.646184    39A      1.717509    40A      1.766151  
      41A      1.921336    42A      2.034660    43A      2.089450  
      44A      2.236215    45A      2.273223    46A      2.389786  
      47A      2.514691    48A      2.578699    49A      2.683179  
      50A      2.727194    51A      2.765401    52A      2.872530  
      53A      2.981502    54A      3.214976    55A      4.158767  
      56A      4.607637    57A      4.829316  

    Final Occupation by Irrep:
              A 
    DOCC [    13 ]

  @DF-RHF Final Energy:  -154.07567059514727

   => Energetics <=

    Nuclear Repulsion Energy =             82.4278793871695967
    One-Electron Energy =                -372.7405871817812226
    Two-Electron Energy =                 136.2370371994643676
    Total Energy =                       -154.0756705951472725

Computation Completed


Properties will be evaluated at   0.000000,   0.000000,   0.000000 [a0]

Properties computed using the SCF density matrix

  Nuclear Dipole Moment: [e a0]
     X:    -2.5073      Y:    -1.1005      Z:     0.5524

  Electronic Dipole Moment: [e a0]
     X:     2.5841      Y:     0.4416      Z:    -0.3897

  Dipole Moment: [e a0]
     X:     0.0768      Y:    -0.6589      Z:     0.1627     Total:     0.6830

  Dipole Moment: [D]
     X:     0.1952      Y:    -1.6747      Z:     0.4136     Total:     1.7361


*** tstop() called on earth at Thu Aug 17 16:41:35 2023
Module time:
	user time   =       0.78 seconds =       0.01 minutes
	system time =       0.00 seconds =       0.00 minutes
	total time  =          0 seconds =       0.00 minutes
Total time:
	user time   =       7.03 seconds =       0.12 minutes
	system time =       0.18 seconds =       0.00 minutes
	total time  =          7 seconds =       0.12 minutes

*** tstart() called on earth
*** at Thu Aug 17 16:41:35 2023


         ------------------------------------------------------------
                                   SCF GRAD                          
                          Rob Parrish, Justin Turney,                
                       Andy Simmonett, and Alex Sokolov              
         ------------------------------------------------------------

  ==> Geometry <==

    Molecular point group: c1
    Full point group: C1

    Geometry (in Angstrom), charge = 0, multiplicity = 1:

       Center              X                  Y                   Z               Mass       
    ------------   -----------------  -----------------  -----------------  -----------------
         C            0.027511445592    -0.551546637830     0.140099835031    12.000000000000
         H           -0.019306067353    -1.394296832865    -0.548356658223     1.007825032230
         H            0.161174656448    -0.956455202493     1.141990085382     1.007825032230
         O            1.091408321387     0.301323669757    -0.194642790619    15.994914619570
         H            1.907428518025    -0.177016153592    -0.157862385034     1.007825032230
         C           -1.257164395827     0.248633191120     0.069766023600    12.000000000000
         H           -1.399872756689     0.643742217601    -0.929756814185     1.007825032230
         H           -1.219214827542     1.082015840766     0.762265722928     1.007825032230
         H           -2.110384579550    -0.373476657526     0.322005559677     1.007825032230

  Nuclear repulsion =   82.427879387169597

  ==> Basis Set <==

  Basis Set: 6-31G(D)
    Blend: 6-31G(D)
    Number of shells: 30
    Number of basis functions: 57
    Number of Cartesian functions: 57
    Spherical Harmonics?: false
    Max angular momentum: 2

  ==> DFJKGrad: Density-Fitted SCF Gradients <==

    Gradient:                    1
    J tasked:                  Yes
    K tasked:                  Yes
    wK tasked:                  No
    OpenMP threads:              1
    Integrals threads:           1
    Memory [MiB]:             2861
    Schwarz Cutoff:          1E-12
    Fitting Condition:       1E-10

   => Auxiliary Basis Set <=

  Basis Set: (6-31G(D) AUX)
    Blend: CC-PVDZ-JKFIT
    Number of shells: 126
    Number of basis functions: 393
    Number of Cartesian functions: 393
    Spherical Harmonics?: false
    Max angular momentum: 3


  -Total Gradient:
     Atom            X                  Y                   Z
    ------   -----------------  -----------------  -----------------
       1       -0.000019391811     0.001107038453     0.000014763487
       2       -0.000002370534    -0.000362356683    -0.000224035465
       3        0.000024564288    -0.000165752698     0.000138468431
       4       -0.000180724068    -0.000329474743     0.000069768555
       5        0.000045384347     0.000030527371    -0.000012980890
       6        0.000103416331    -0.000261188861     0.000012091650
       7        0.000023252767    -0.000015490220    -0.000000182455
       8        0.000049678242    -0.000030939021     0.000005566384
       9       -0.000043809562     0.000027636402    -0.000003459695


*** tstop() called on earth at Thu Aug 17 16:41:36 2023
Module time:
	user time   =       0.38 seconds =       0.01 minutes
	system time =       0.02 seconds =       0.00 minutes
	total time  =          1 seconds =       0.02 minutes
Total time:
	user time   =       7.41 seconds =       0.12 minutes
	system time =       0.20 seconds =       0.00 minutes
	total time  =          8 seconds =       0.13 minutes

  //>>>>>>>>>>>>>>>>>>>>>>>>>>>>>>>>>>>//
  //    Loading displacement 6 of 43   //
  //<<<<<<<<<<<<<<<<<<<<<<<<<<<<<<<<<<<//

Scratch directory: /tmp/
gradient() will perform analytic gradient computation.

*** tstart() called on earth
*** at Thu Aug 17 16:41:36 2023

   => Loading Basis Set <=

    Name: 6-31G(D)
    Role: ORBITAL
    Keyword: BASIS
    atoms 1, 6        entry C          line   111 file /media/storage-1/miniconda3/envs/psi4/share/psi4/basis/6-31g_d_.gbs 
    atoms 2-3, 5, 7-9 entry H          line    44 file /media/storage-1/miniconda3/envs/psi4/share/psi4/basis/6-31g_d_.gbs 
    atoms 4           entry O          line   145 file /media/storage-1/miniconda3/envs/psi4/share/psi4/basis/6-31g_d_.gbs 


         ---------------------------------------------------------
                                   SCF
               by Justin Turney, Rob Parrish, Andy Simmonett
                          and Daniel G. A. Smith
                              RHF Reference
                        1 Threads,   3814 MiB Core
         ---------------------------------------------------------

  ==> Geometry <==

    Molecular point group: c1
    Full point group: C1

    Geometry (in Angstrom), charge = 0, multiplicity = 1:

       Center              X                  Y                   Z               Mass       
    ------------   -----------------  -----------------  -----------------  -----------------
         C            0.027511445592    -0.552195649364     0.139633050566    12.000000000000
         H           -0.019207816083    -1.394386857678    -0.547178538553     1.007825032230
         H            0.161244961839    -0.955455749184     1.142888859301     1.007825032230
         O            1.091401809387     0.301527676773    -0.194545835784    15.994914619570
         H            1.907451482677    -0.176738327164    -0.157459826420     1.007825032230
         C           -1.257167804243     0.248861056002     0.069895299426    12.000000000000
         H           -1.399899971424     0.643323595572    -0.929879611753     1.007825032230
[...]
       9       -0.000809152664    -0.000759304024     0.000094509635


*** tstop() called on earth at Thu Aug 17 16:42:22 2023
Module time:
	user time   =       0.44 seconds =       0.01 minutes
	system time =       0.02 seconds =       0.00 minutes
	total time  =          0 seconds =       0.00 minutes
Total time:
	user time   =      52.64 seconds =       0.88 minutes
	system time =       1.13 seconds =       0.02 minutes
	total time  =         54 seconds =       0.90 minutes

         ----------------------------------------------------------
                                   FINDIF
                     R. A. King and Jonathon Misiewicz
         ---------------------------------------------------------

  Computing second-derivative from gradients using projected, 
  symmetry-adapted, cartesian coordinates.

  43 gradients passed in, including the reference geometry.
  Generating complete list of displacements from unique ones.


-------------------------------------------------------------


  ==> Harmonic Vibrational Analysis <==

  non-mass-weighted Hessian:       Symmetric? True   Hermitian? True   Lin Dep Dim?  6 (0)
  projection of translations (True) and rotations (True) removed 6 degrees of freedom (6)
  total projector:                 Symmetric? True   Hermitian? True   Lin Dep Dim?  6 (6)
  mass-weighted Hessian:           Symmetric? True   Hermitian? True   Lin Dep Dim?  6 (0)
  pre-proj  low-frequency mode:    0.0000i [cm^-1]
  pre-proj  low-frequency mode:    0.0000i [cm^-1]
  pre-proj  low-frequency mode:    0.0000  [cm^-1]
  pre-proj  low-frequency mode:    0.0000  [cm^-1]
  pre-proj  low-frequency mode:    0.0000  [cm^-1]
  pre-proj  low-frequency mode:    0.0000  [cm^-1]
  pre-proj  all modes:['0.0000i' '0.0000i' '0.0000' '0.0000' '0.0000' '0.0000' '269.9690'
 '316.9350' '447.6175' '886.8606' '977.9841' '1132.9905' '1217.4698'
 '1298.8725' '1395.6783' '1424.0477' '1549.7536' '1613.6199' '1628.8626'
 '1646.0011' '1686.1690' '3175.7919' '3200.7138' '3212.4304' '3276.9619'
 '3289.2755' '4114.6453']
  projected mass-weighted Hessian: Symmetric? True   Hermitian? True   Lin Dep Dim?  6 (6)
  post-proj low-frequency mode:    0.0000i [cm^-1] (TR)
  post-proj low-frequency mode:    0.0000i [cm^-1] (TR)
  post-proj low-frequency mode:    0.0000  [cm^-1] (TR)
  post-proj low-frequency mode:    0.0000  [cm^-1] (TR)
  post-proj low-frequency mode:    0.0000  [cm^-1] (TR)
  post-proj low-frequency mode:    0.0001  [cm^-1] (TR)
  post-proj  all modes:['0.0000i' '0.0000i' '0.0000' '0.0000' '0.0000' '0.0001' '269.9690'
 '316.9350' '447.6175' '886.8606' '977.9841' '1132.9905' '1217.4698'
 '1298.8725' '1395.6783' '1424.0477' '1549.7536' '1613.6199' '1628.8626'
 '1646.0011' '1686.1690' '3175.7919' '3200.7138' '3212.4304' '3276.9619'
 '3289.2755' '4114.6453']

  Vibration                       7                   8                   9           
  Freq [cm^-1]                 269.9690            316.9350            447.6175       
  Irrep                           A                   A                   A           
  Reduced mass [u]              1.1498              1.0718              2.6509        
  Force const [mDyne/A]         0.0494              0.0634              0.3129        
  Turning point v=0 [a0]        0.6228              0.5953              0.3185        
  RMS dev v=0 [a0 u^1/2]        0.4722              0.4358              0.3667        
  Char temp [K]                388.4252            455.9989            644.0220       
  ----------------------------------------------------------------------------------
      1   C               -0.01 -0.01 -0.06   -0.01 -0.01 -0.05   -0.01  0.18 -0.05   
      2   H                0.01  0.05 -0.14   -0.02  0.00 -0.08   -0.07  0.17 -0.03   
      3   H               -0.04 -0.11 -0.09    0.00 -0.04 -0.07   -0.07  0.16 -0.04   
      4   O                0.01  0.02  0.08   -0.00 -0.01 -0.04    0.22 -0.07 -0.01   
      5   H               -0.03 -0.08 -0.31    0.10  0.23  0.90    0.05 -0.35  0.08   
      6   C               -0.00 -0.00 -0.01    0.00  0.01  0.03   -0.20 -0.04  0.03   
      7   H               -0.31 -0.40 -0.12   -0.15 -0.10  0.01   -0.49 -0.07  0.06   
      8   H                0.26  0.27 -0.36    0.14  0.08 -0.07   -0.49 -0.07  0.08   
      9   H                0.06  0.14  0.52    0.02  0.06  0.22    0.08 -0.40  0.09   

  Vibration                       10                  11                  12          
  Freq [cm^-1]                 886.8606            977.9841           1132.9905       
  Irrep                           A                   A                   A           
  Reduced mass [u]              1.0821              2.2158              1.8323        
  Force const [mDyne/A]         0.5015              1.2487              1.3858        
  Turning point v=0 [a0]        0.3542              0.2357              0.2408        
  RMS dev v=0 [a0 u^1/2]        0.2605              0.2481              0.2305        
  Char temp [K]               1275.9950           1407.1014           1630.1210       
  ----------------------------------------------------------------------------------
      1   C               -0.01 -0.02 -0.06   -0.04  0.16 -0.04    0.16 -0.09  0.01   
      2   H                0.28 -0.30  0.27   -0.22  0.14 -0.01    0.05 -0.11  0.03   
      3   H               -0.23  0.41  0.14   -0.22  0.14 -0.01    0.05 -0.11  0.02   
      4   O                0.00  0.01  0.02   -0.13 -0.06  0.03   -0.06 -0.07  0.02   
      5   H               -0.00 -0.01 -0.03   -0.18 -0.14  0.06    0.25  0.47 -0.15   
      6   C               -0.00 -0.01 -0.05    0.23 -0.03 -0.02   -0.04  0.16 -0.04   
      7   H               -0.33  0.33  0.14   -0.12 -0.12 -0.00   -0.47  0.09 -0.01   
      8   H                0.37 -0.24  0.21   -0.11 -0.10  0.08   -0.46  0.11  0.06   
      9   H                0.02  0.05  0.18    0.61 -0.52  0.07    0.26 -0.25  0.04   

  Vibration                       13                  14                  15          
  Freq [cm^-1]                1217.4698           1298.8725           1395.6783       
  Irrep                           A                   A                   A           
  Reduced mass [u]              2.2883              1.5154              1.3502        
  Force const [mDyne/A]         1.9984              1.5063              1.5496        
  Turning point v=0 [a0]        0.2079              0.2473              0.2528        
  RMS dev v=0 [a0 u^1/2]        0.2224              0.2153              0.2077        
  Char temp [K]               1751.6680           1868.7883           2008.0703       
  ----------------------------------------------------------------------------------
      1   C                0.21  0.14 -0.06    0.02  0.04  0.17    0.03  0.11 -0.03   
      2   H                0.46  0.11 -0.06    0.21  0.43 -0.30   -0.27  0.11 -0.01   
      3   H                0.46  0.11 -0.09   -0.24 -0.51 -0.01   -0.27  0.12  0.01   
      4   O               -0.13 -0.11  0.04   -0.01 -0.01 -0.05   -0.01 -0.09  0.02   
      5   H               -0.31 -0.38  0.13    0.00  0.00  0.01    0.42  0.65 -0.21   
      6   C               -0.08 -0.02  0.01   -0.01 -0.03 -0.10   -0.03 -0.08  0.02   
      7   H                0.12  0.09  0.02   -0.25  0.27  0.05    0.23  0.03  0.03   
      8   H                0.11  0.06 -0.08    0.27 -0.22  0.13    0.22 -0.00 -0.08   
      9   H               -0.28  0.25 -0.04    0.02  0.05  0.20   -0.17  0.12 -0.01   

  Vibration                       16                  17                  18          
  Freq [cm^-1]                1424.0477           1549.7536           1613.6199       
  Irrep                           A                   A                   A           
  Reduced mass [u]              1.1052              1.2337              1.4141        
  Force const [mDyne/A]         1.3204              1.7457              2.1694        
  Turning point v=0 [a0]        0.2766              0.2509              0.2297        
  RMS dev v=0 [a0 u^1/2]        0.2056              0.1971              0.1932        
  Char temp [K]               2048.8875           2229.7503           2321.6398       
  ----------------------------------------------------------------------------------
      1   C               -0.00 -0.01 -0.02   -0.05  0.01  0.00    0.16 -0.04 -0.01   
      2   H                0.65  0.02 -0.09    0.26 -0.01 -0.00   -0.52 -0.08  0.07   
      3   H               -0.65 -0.03  0.06    0.26 -0.02 -0.05   -0.52 -0.07  0.08   
      4   O               -0.00 -0.01 -0.03    0.00 -0.02  0.00   -0.01  0.05 -0.01   
      5   H               -0.00 -0.00 -0.01    0.08  0.10 -0.03   -0.20 -0.29  0.10   
      6   C                0.01  0.02  0.08   -0.10  0.08 -0.01   -0.09  0.01  0.01   
      7   H                0.17 -0.18 -0.02    0.42 -0.21 -0.18    0.26  0.14  0.00   
      8   H               -0.18  0.16 -0.07    0.45 -0.11  0.17    0.24  0.11 -0.12   
      9   H               -0.01 -0.03 -0.11    0.33 -0.46  0.08    0.13 -0.26  0.05   

  Vibration                       19                  20                  21          
  Freq [cm^-1]                1628.8626           1646.0011           1686.1690       
  Irrep                           A                   A                   A           
  Reduced mass [u]              1.0418              1.0715              1.0971        
  Force const [mDyne/A]         1.6286              1.7105              1.8378        
  Turning point v=0 [a0]        0.2664              0.2613              0.2551        
  RMS dev v=0 [a0 u^1/2]        0.1922              0.1912              0.1889        
  Char temp [K]               2343.5706           2368.2291           2426.0218       
  ----------------------------------------------------------------------------------
      1   C               -0.00 -0.01 -0.02   -0.06  0.01  0.00   -0.00 -0.09  0.02   
      2   H                0.02 -0.03  0.01    0.17 -0.10  0.11   -0.01  0.41 -0.55   
      3   H               -0.02  0.03 -0.00    0.15 -0.15 -0.08    0.07  0.63  0.27   
      4   O                0.00  0.00  0.00    0.01 -0.00  0.00   -0.00 -0.00  0.00   
      5   H                0.00  0.00  0.01    0.04  0.05 -0.02   -0.01 -0.01  0.00   
      6   C               -0.01 -0.01 -0.05   -0.00 -0.05  0.01   -0.01 -0.00  0.00   
      7   H                0.46  0.16 -0.04    0.07  0.58  0.24    0.02  0.13  0.05   
      8   H               -0.45 -0.13  0.14   -0.01  0.39 -0.50    0.01  0.09 -0.11   
      9   H                0.07  0.18  0.69    0.17 -0.24  0.05    0.06 -0.09  0.02   

  Vibration                       22                  23                  24          
  Freq [cm^-1]                3175.7919           3200.7138           3212.4304       
  Irrep                           A                   A                   A           
  Reduced mass [u]              1.0561              1.1087              1.0371        
  Force const [mDyne/A]         6.2758              6.6921              6.3060        
  Turning point v=0 [a0]        0.1895              0.1842              0.1901        
  RMS dev v=0 [a0 u^1/2]        0.1377              0.1371              0.1369        
  Char temp [K]               4569.2575           4605.1145           4621.9721       
  ----------------------------------------------------------------------------------
      1   C               -0.01  0.06 -0.02   -0.01 -0.02 -0.09    0.00 -0.01  0.00   
      2   H               -0.03 -0.52 -0.46    0.02  0.54  0.44    0.00  0.07  0.06   
      3   H                0.09 -0.23  0.65    0.10 -0.26  0.64   -0.01  0.03 -0.08   
      4   O                0.00  0.00 -0.00    0.00  0.00  0.00   -0.00 -0.00  0.00   
      5   H                0.00  0.01 -0.00    0.00  0.00  0.00   -0.00 -0.00  0.00   
      6   C               -0.01 -0.00  0.00    0.00  0.00  0.01   -0.05  0.02  0.00   
      7   H                0.00 -0.01  0.03   -0.01  0.04 -0.10    0.06 -0.19  0.49   
      8   H               -0.00 -0.03 -0.02   -0.01 -0.09 -0.07   -0.03 -0.40 -0.34   
      9   H                0.10  0.09 -0.03    0.00  0.00  0.00    0.51  0.38 -0.15   

  Vibration                       25                  26                  27          
  Freq [cm^-1]                3276.9619           3289.2755           4114.6453       
  Irrep                           A                   A                   A           
  Reduced mass [u]              1.1023              1.1047              1.0669        
  Force const [mDyne/A]         6.9741              7.0421             10.6424        
  Turning point v=0 [a0]        0.1826              0.1820              0.1656        
  RMS dev v=0 [a0 u^1/2]        0.1355              0.1353              0.1210        
  Char temp [K]               4714.8186           4732.5350           5920.0585       
  ----------------------------------------------------------------------------------
      1   C               -0.00 -0.01  0.00   -0.00 -0.00 -0.02    0.00  0.00 -0.00   
      2   H                0.00  0.04  0.03    0.00  0.08  0.07    0.00  0.00 -0.00   
      3   H               -0.01  0.02 -0.05    0.02 -0.04  0.10    0.00  0.00  0.00   
      4   O                0.00  0.00 -0.00    0.00  0.00  0.00   -0.06  0.03 -0.00   
      5   H               -0.00  0.00 -0.00    0.00  0.00  0.00    0.87 -0.50  0.04   
      6   C               -0.04 -0.08  0.02   -0.01 -0.02 -0.09    0.00 -0.00  0.00   
      7   H               -0.07  0.16 -0.44    0.09 -0.26  0.64    0.00 -0.00  0.00   
      8   H                0.01  0.35  0.31    0.03  0.54  0.44    0.00 -0.00 -0.00   
      9   H                0.58  0.42 -0.17   -0.00 -0.00 -0.01    0.00  0.00 -0.00   

  ==> Thermochemistry Components <==

  Entropy, S
    Electronic S            0.000 [cal/(mol K)]        0.000 [J/(mol K)]       0.00000000 [mEh/K] (multiplicity = 1)
    Translational S        37.406 [cal/(mol K)]      156.507 [J/(mol K)]       0.05961029 [mEh/K] (mol. weight = 46.0419 [u], P = 101325.00 [Pa])
    Rotational S           22.265 [cal/(mol K)]       93.155 [J/(mol K)]       0.03548084 [mEh/K] (symmetry no. = 1)
    Vibrational S           4.165 [cal/(mol K)]       17.425 [J/(mol K)]       0.00663695 [mEh/K]
  Total S                  63.835 [cal/(mol K)]      267.087 [J/(mol K)]       0.10172807 [mEh/K]
  Correction S              0.000 [cal/(mol K)]        0.000 [J/(mol K)]       0.00000000 [mEh/K]

  Constant volume heat capacity, Cv
    Electronic Cv           0.000 [cal/(mol K)]        0.000 [J/(mol K)]       0.00000000 [mEh/K]
    Translational Cv        2.981 [cal/(mol K)]       12.472 [J/(mol K)]       0.00475022 [mEh/K]
    Rotational Cv           2.981 [cal/(mol K)]       12.472 [J/(mol K)]       0.00475022 [mEh/K]
    Vibrational Cv          6.700 [cal/(mol K)]       28.033 [J/(mol K)]       0.01067712 [mEh/K]
  Total Cv                 12.662 [cal/(mol K)]       52.976 [J/(mol K)]       0.02017755 [mEh/K]
  Correction Cv             0.000 [cal/(mol K)]        0.000 [J/(mol K)]       0.00000000 [mEh/K]

  Constant pressure heat capacity, Cp
    Electronic Cp           0.000 [cal/(mol K)]        0.000 [J/(mol K)]       0.00000000 [mEh/K]
    Translational Cp        4.968 [cal/(mol K)]       20.786 [J/(mol K)]       0.00791703 [mEh/K]
    Rotational Cp           2.981 [cal/(mol K)]       12.472 [J/(mol K)]       0.00475022 [mEh/K]
    Vibrational Cp          6.700 [cal/(mol K)]       28.033 [J/(mol K)]       0.01067712 [mEh/K]
  Total Cp                 14.649 [cal/(mol K)]       61.291 [J/(mol K)]       0.02334436 [mEh/K]
  Correction Cp             0.000 [cal/(mol K)]        0.000 [J/(mol K)]       0.00000000 [mEh/K]

  ==> Thermochemistry Energy Analysis <==

  Raw electronic energy, E0
  Total E0, Electronic energy at well bottom at 0 [K]                 -154.07567155 [Eh]

  Zero-point energy, ZPE_vib = Sum_i nu_i / 2
    Electronic ZPE          0.000 [kcal/mol]        0.000 [kJ/mol]       0.00000000 [Eh]
    Translational ZPE       0.000 [kcal/mol]        0.000 [kJ/mol]       0.00000000 [Eh]
    Rotational ZPE          0.000 [kcal/mol]        0.000 [kJ/mol]       0.00000000 [Eh]
    Vibrational ZPE        53.984 [kcal/mol]      225.871 [kJ/mol]       0.08602965 [Eh]       18881.325 [cm^-1]
  Correction ZPE           53.984 [kcal/mol]      225.871 [kJ/mol]       0.08602965 [Eh]       18881.325 [cm^-1]
  Total ZPE, Electronic energy at 0 [K]                               -153.98964190 [Eh]

  Thermal Energy, E (includes ZPE)
    Electronic E            0.000 [kcal/mol]        0.000 [kJ/mol]       0.00000000 [Eh]
    Translational E         0.889 [kcal/mol]        3.718 [kJ/mol]       0.00141628 [Eh]
    Rotational E            0.889 [kcal/mol]        3.718 [kJ/mol]       0.00141628 [Eh]
    Vibrational E          54.800 [kcal/mol]      229.281 [kJ/mol]       0.08732869 [Eh]
  Correction E             56.577 [kcal/mol]      236.718 [kJ/mol]       0.09016124 [Eh]
  Total E, Electronic energy at  298.15 [K]                           -153.98551030 [Eh]

  Enthalpy, H_trans = E_trans + k_B * T
    Electronic H            0.000 [kcal/mol]        0.000 [kJ/mol]       0.00000000 [Eh]
    Translational H         1.481 [kcal/mol]        6.197 [kJ/mol]       0.00236046 [Eh]
    Rotational H            0.889 [kcal/mol]        3.718 [kJ/mol]       0.00141628 [Eh]
    Vibrational H          54.800 [kcal/mol]      229.281 [kJ/mol]       0.08732869 [Eh]
  Correction H             57.170 [kcal/mol]      239.197 [kJ/mol]       0.09110543 [Eh]
  Total H, Enthalpy at  298.15 [K]                                    -153.98456612 [Eh]

  Gibbs free energy, G = H - T * S
    Electronic G            0.000 [kcal/mol]        0.000 [kJ/mol]       0.00000000 [Eh]
    Translational G        -9.671 [kcal/mol]      -40.465 [kJ/mol]      -0.01541235 [Eh]
    Rotational G           -5.749 [kcal/mol]      -24.056 [kJ/mol]      -0.00916233 [Eh]
    Vibrational G          53.558 [kcal/mol]      224.086 [kJ/mol]       0.08534988 [Eh]
  Correction G             38.137 [kcal/mol]      159.565 [kJ/mol]       0.06077520 [Eh]
  Total G, Free enthalpy at  298.15 [K]                               -154.01489634 [Eh]


Properties will be evaluated at   0.000000,   0.000000,   0.000000 [a0]

Properties computed using the molecule density matrix

  Mulliken Charges: (a.u.)
   Center  Symbol    Alpha    Beta     Spin     Total
       1     C     2.99649  2.99649  0.00000  0.00701
       2     H     0.43166  0.43166  0.00000  0.13667
       3     H     0.43166  0.43166  0.00000  0.13667
       4     O     4.36758  4.36758  0.00000 -0.73516
       5     H     0.28114  0.28114  0.00000  0.43772
       6     C     3.24308  3.24308  0.00000 -0.48615
       7     H     0.41278  0.41278  0.00000  0.17444
       8     H     0.41278  0.41278  0.00000  0.17444
       9     H     0.42282  0.42282  0.00000  0.15437

   Total alpha = 13.00000, Total beta = 13.00000, Total charge =  0.00000



Properties will be evaluated at   0.000000,   0.000000,   0.000000 [a0]

Properties computed using the molecule density matrix

  Lowdin Charges: (a.u.)
   Center  Symbol    Alpha    Beta     Spin     Total
       1     C     3.03721  3.03721  0.00000 -0.07441
       2     H     0.44198  0.44198  0.00000  0.11604
       3     H     0.44083  0.44083  0.00000  0.11834
       4     O     4.26538  4.26538  0.00000 -0.53075
       5     H     0.32310  0.32310  0.00000  0.35380
       6     C     3.21458  3.21458  0.00000 -0.42916
       7     H     0.42365  0.42365  0.00000  0.15270
       8     H     0.42462  0.42462  0.00000  0.15076
       9     H     0.42865  0.42865  0.00000  0.14269

  Total alpha = 13.00000, Total beta = 13.00000, Total charge =  0.00000

    Psi4 stopped on: Thursday, 17 August 2023 04:42PM
    Psi4 wall time for execution: 0:00:54.17

*** Psi4 exiting successfully. Buy a developer a beer!
